   6   6   1   0
  0.1016045E+03  0.3770000E-09  0.3770000E-09  0.4952800E-08  0.5000000E-15
  1.000000000000000E-004
  CAR 
 ZrSe2-Bilayer_AA_-                      
      8.42304369    -55.42461060 3000     -3.03076456      1.00000000
    -55.425  0.0000E+00  0.0000E+00
    -55.403  0.0000E+00  0.0000E+00
    -55.382  0.0000E+00  0.0000E+00
    -55.361  0.0000E+00  0.0000E+00
    -55.339  0.0000E+00  0.0000E+00
    -55.318  0.0000E+00  0.0000E+00
    -55.297  0.0000E+00  0.0000E+00
    -55.276  0.0000E+00  0.0000E+00
    -55.254  0.0000E+00  0.0000E+00
    -55.233  0.0000E+00  0.0000E+00
    -55.212  0.0000E+00  0.0000E+00
    -55.190  0.0000E+00  0.0000E+00
    -55.169  0.0000E+00  0.0000E+00
    -55.148  0.0000E+00  0.0000E+00
    -55.127  0.0000E+00  0.0000E+00
    -55.105  0.0000E+00  0.0000E+00
    -55.084  0.0000E+00  0.0000E+00
    -55.063  0.0000E+00  0.0000E+00
    -55.041  0.0000E+00  0.0000E+00
    -55.020  0.0000E+00  0.0000E+00
    -54.999  0.0000E+00  0.0000E+00
    -54.978  0.0000E+00  0.0000E+00
    -54.956  0.0000E+00  0.0000E+00
    -54.935  0.0000E+00  0.0000E+00
    -54.914  0.0000E+00  0.0000E+00
    -54.892  0.0000E+00  0.0000E+00
    -54.871  0.0000E+00  0.0000E+00
    -54.850  0.0000E+00  0.0000E+00
    -54.829  0.0000E+00  0.0000E+00
    -54.807  0.0000E+00  0.0000E+00
    -54.786  0.0000E+00  0.0000E+00
    -54.765  0.0000E+00  0.0000E+00
    -54.743  0.0000E+00  0.0000E+00
    -54.722  0.0000E+00  0.0000E+00
    -54.701  0.0000E+00  0.0000E+00
    -54.679  0.0000E+00  0.0000E+00
    -54.658  0.0000E+00  0.0000E+00
    -54.637  0.0000E+00  0.0000E+00
    -54.616  0.0000E+00  0.0000E+00
    -54.594  0.0000E+00  0.0000E+00
    -54.573  0.0000E+00  0.0000E+00
    -54.552  0.0000E+00  0.0000E+00
    -54.530  0.0000E+00  0.0000E+00
    -54.509  0.0000E+00  0.0000E+00
    -54.488  0.0000E+00  0.0000E+00
    -54.467  0.0000E+00  0.0000E+00
    -54.445  0.0000E+00  0.0000E+00
    -54.424  0.0000E+00  0.0000E+00
    -54.403  0.0000E+00  0.0000E+00
    -54.381  0.0000E+00  0.0000E+00
    -54.360  0.0000E+00  0.0000E+00
    -54.339  0.0000E+00  0.0000E+00
    -54.318  0.0000E+00  0.0000E+00
    -54.296  0.0000E+00  0.0000E+00
    -54.275  0.0000E+00  0.0000E+00
    -54.254  0.0000E+00  0.0000E+00
    -54.232  0.0000E+00  0.0000E+00
    -54.211  0.0000E+00  0.0000E+00
    -54.190  0.0000E+00  0.0000E+00
    -54.169  0.0000E+00  0.0000E+00
    -54.147  0.0000E+00  0.0000E+00
    -54.126  0.0000E+00  0.0000E+00
    -54.105  0.0000E+00  0.0000E+00
    -54.083  0.0000E+00  0.0000E+00
    -54.062  0.0000E+00  0.0000E+00
    -54.041  0.0000E+00  0.0000E+00
    -54.019  0.0000E+00  0.0000E+00
    -53.998  0.0000E+00  0.0000E+00
    -53.977  0.0000E+00  0.0000E+00
    -53.956  0.0000E+00  0.0000E+00
    -53.934  0.0000E+00  0.0000E+00
    -53.913  0.0000E+00  0.0000E+00
    -53.892  0.0000E+00  0.0000E+00
    -53.870  0.0000E+00  0.0000E+00
    -53.849  0.0000E+00  0.0000E+00
    -53.828  0.0000E+00  0.0000E+00
    -53.807  0.0000E+00  0.0000E+00
    -53.785  0.0000E+00  0.0000E+00
    -53.764  0.0000E+00  0.0000E+00
    -53.743  0.0000E+00  0.0000E+00
    -53.721  0.0000E+00  0.0000E+00
    -53.700  0.0000E+00  0.0000E+00
    -53.679  0.0000E+00  0.0000E+00
    -53.658  0.0000E+00  0.0000E+00
    -53.636  0.0000E+00  0.0000E+00
    -53.615  0.0000E+00  0.0000E+00
    -53.594  0.0000E+00  0.0000E+00
    -53.572  0.0000E+00  0.0000E+00
    -53.551  0.0000E+00  0.0000E+00
    -53.530  0.0000E+00  0.0000E+00
    -53.509  0.0000E+00  0.0000E+00
    -53.487  0.0000E+00  0.0000E+00
    -53.466  0.0000E+00  0.0000E+00
    -53.445  0.0000E+00  0.0000E+00
    -53.423  0.0000E+00  0.0000E+00
    -53.402  0.0000E+00  0.0000E+00
    -53.381  0.0000E+00  0.0000E+00
    -53.360  0.0000E+00  0.0000E+00
    -53.338  0.0000E+00  0.0000E+00
    -53.317  0.0000E+00  0.0000E+00
    -53.296  0.0000E+00  0.0000E+00
    -53.274  0.0000E+00  0.0000E+00
    -53.253  0.0000E+00  0.0000E+00
    -53.232  0.0000E+00  0.0000E+00
    -53.210  0.0000E+00  0.0000E+00
    -53.189  0.0000E+00  0.0000E+00
    -53.168  0.0000E+00  0.0000E+00
    -53.147  0.0000E+00  0.0000E+00
    -53.125  0.0000E+00  0.0000E+00
    -53.104  0.0000E+00  0.0000E+00
    -53.083  0.0000E+00  0.0000E+00
    -53.061  0.0000E+00  0.0000E+00
    -53.040  0.0000E+00  0.0000E+00
    -53.019  0.0000E+00  0.0000E+00
    -52.998  0.0000E+00  0.0000E+00
    -52.976  0.0000E+00  0.0000E+00
    -52.955  0.0000E+00  0.0000E+00
    -52.934 -0.3268E-27 -0.6958E-29
    -52.912 -0.3073E-24 -0.6549E-26
    -52.891 -0.1931E-21 -0.4117E-23
    -52.870 -0.8438E-19 -0.1801E-20
    -52.849 -0.2566E-16 -0.5480E-18
    -52.827 -0.5426E-14 -0.1161E-15
    -52.806 -0.7755E-12 -0.1663E-13
    -52.785 -0.7871E-10 -0.1692E-11
    -52.763 -0.5552E-08 -0.1199E-09
    -52.742 -0.2711E-06 -0.5892E-08
    -52.721 -0.9145E-05 -0.2006E-06
    -52.700 -0.2121E-03 -0.4717E-05
    -52.678 -0.3362E-02 -0.7629E-04
    -52.657 -0.3600E-01 -0.8427E-03
    -52.636 -0.2551E+00 -0.6274E-02
    -52.614 -0.1146E+01 -0.3066E-01
    -52.593 -0.2885E+01 -0.9209E-01
    -52.572 -0.1850E+01 -0.1315E+00
    -52.551  0.1168E+02  0.1172E+00
    -52.529  0.4067E+02  0.9830E+00
    -52.508  0.6367E+02  0.2338E+01
    -52.487  0.5550E+02  0.3520E+01
    -52.465  0.2559E+02  0.4065E+01
    -52.444  0.2935E+01  0.4127E+01
    -52.423 -0.3250E+01  0.4058E+01
    -52.401 -0.2026E+01  0.4015E+01
    -52.380 -0.5880E+00  0.4002E+01
    -52.359 -0.1030E+00  0.4000E+01
    -52.338 -0.1168E-01  0.4000E+01
    -52.316 -0.8836E-03  0.4000E+01
    -52.295 -0.4523E-04  0.4000E+01
    -52.274 -0.1581E-05  0.4000E+01
    -52.252 -0.3792E-07  0.4000E+01
    -52.231 -0.6267E-09  0.4000E+01
    -52.210 -0.7152E-11  0.4000E+01
    -52.189 -0.5702E-13  0.4000E+01
    -52.167  0.0000E+00  0.4000E+01
    -52.146  0.0000E+00  0.4000E+01
    -52.125  0.0000E+00  0.4000E+01
    -52.103  0.0000E+00  0.4000E+01
    -52.082  0.0000E+00  0.4000E+01
    -52.061  0.0000E+00  0.4000E+01
    -52.040  0.0000E+00  0.4000E+01
    -52.018  0.0000E+00  0.4000E+01
    -51.997  0.0000E+00  0.4000E+01
    -51.976  0.0000E+00  0.4000E+01
    -51.954  0.0000E+00  0.4000E+01
    -51.933  0.0000E+00  0.4000E+01
    -51.912  0.0000E+00  0.4000E+01
    -51.891  0.0000E+00  0.4000E+01
    -51.869  0.0000E+00  0.4000E+01
    -51.848  0.0000E+00  0.4000E+01
    -51.827  0.0000E+00  0.4000E+01
    -51.805  0.0000E+00  0.4000E+01
    -51.784  0.0000E+00  0.4000E+01
    -51.763  0.0000E+00  0.4000E+01
    -51.742  0.0000E+00  0.4000E+01
    -51.720  0.0000E+00  0.4000E+01
    -51.699  0.0000E+00  0.4000E+01
    -51.678  0.0000E+00  0.4000E+01
    -51.656  0.0000E+00  0.4000E+01
    -51.635  0.0000E+00  0.4000E+01
    -51.614  0.0000E+00  0.4000E+01
    -51.592  0.0000E+00  0.4000E+01
    -51.571  0.0000E+00  0.4000E+01
    -51.550  0.0000E+00  0.4000E+01
    -51.529  0.0000E+00  0.4000E+01
    -51.507  0.0000E+00  0.4000E+01
    -51.486  0.0000E+00  0.4000E+01
    -51.465  0.0000E+00  0.4000E+01
    -51.443  0.0000E+00  0.4000E+01
    -51.422  0.0000E+00  0.4000E+01
    -51.401  0.0000E+00  0.4000E+01
    -51.380  0.0000E+00  0.4000E+01
    -51.358  0.0000E+00  0.4000E+01
    -51.337  0.0000E+00  0.4000E+01
    -51.316  0.0000E+00  0.4000E+01
    -51.294  0.0000E+00  0.4000E+01
    -51.273  0.0000E+00  0.4000E+01
    -51.252  0.0000E+00  0.4000E+01
    -51.231  0.0000E+00  0.4000E+01
    -51.209  0.0000E+00  0.4000E+01
    -51.188  0.0000E+00  0.4000E+01
    -51.167  0.0000E+00  0.4000E+01
    -51.145  0.0000E+00  0.4000E+01
    -51.124  0.0000E+00  0.4000E+01
    -51.103  0.0000E+00  0.4000E+01
    -51.082  0.0000E+00  0.4000E+01
    -51.060  0.0000E+00  0.4000E+01
    -51.039  0.0000E+00  0.4000E+01
    -51.018  0.0000E+00  0.4000E+01
    -50.996  0.0000E+00  0.4000E+01
    -50.975  0.0000E+00  0.4000E+01
    -50.954  0.0000E+00  0.4000E+01
    -50.932  0.0000E+00  0.4000E+01
    -50.911  0.0000E+00  0.4000E+01
    -50.890  0.0000E+00  0.4000E+01
    -50.869  0.0000E+00  0.4000E+01
    -50.847  0.0000E+00  0.4000E+01
    -50.826  0.0000E+00  0.4000E+01
    -50.805  0.0000E+00  0.4000E+01
    -50.783  0.0000E+00  0.4000E+01
    -50.762  0.0000E+00  0.4000E+01
    -50.741  0.0000E+00  0.4000E+01
    -50.720  0.0000E+00  0.4000E+01
    -50.698  0.0000E+00  0.4000E+01
    -50.677  0.0000E+00  0.4000E+01
    -50.656  0.0000E+00  0.4000E+01
    -50.634  0.0000E+00  0.4000E+01
    -50.613  0.0000E+00  0.4000E+01
    -50.592  0.0000E+00  0.4000E+01
    -50.571  0.0000E+00  0.4000E+01
    -50.549  0.0000E+00  0.4000E+01
    -50.528  0.0000E+00  0.4000E+01
    -50.507  0.0000E+00  0.4000E+01
    -50.485  0.0000E+00  0.4000E+01
    -50.464  0.0000E+00  0.4000E+01
    -50.443  0.0000E+00  0.4000E+01
    -50.422  0.0000E+00  0.4000E+01
    -50.400  0.0000E+00  0.4000E+01
    -50.379  0.0000E+00  0.4000E+01
    -50.358  0.0000E+00  0.4000E+01
    -50.336  0.0000E+00  0.4000E+01
    -50.315  0.0000E+00  0.4000E+01
    -50.294  0.0000E+00  0.4000E+01
    -50.273  0.0000E+00  0.4000E+01
    -50.251  0.0000E+00  0.4000E+01
    -50.230  0.0000E+00  0.4000E+01
    -50.209  0.0000E+00  0.4000E+01
    -50.187  0.0000E+00  0.4000E+01
    -50.166  0.0000E+00  0.4000E+01
    -50.145  0.0000E+00  0.4000E+01
    -50.123  0.0000E+00  0.4000E+01
    -50.102  0.0000E+00  0.4000E+01
    -50.081  0.0000E+00  0.4000E+01
    -50.060  0.0000E+00  0.4000E+01
    -50.038  0.0000E+00  0.4000E+01
    -50.017  0.0000E+00  0.4000E+01
    -49.996  0.0000E+00  0.4000E+01
    -49.974  0.0000E+00  0.4000E+01
    -49.953  0.0000E+00  0.4000E+01
    -49.932  0.0000E+00  0.4000E+01
    -49.911  0.0000E+00  0.4000E+01
    -49.889  0.0000E+00  0.4000E+01
    -49.868  0.0000E+00  0.4000E+01
    -49.847  0.0000E+00  0.4000E+01
    -49.825  0.0000E+00  0.4000E+01
    -49.804  0.0000E+00  0.4000E+01
    -49.783  0.0000E+00  0.4000E+01
    -49.762  0.0000E+00  0.4000E+01
    -49.740  0.0000E+00  0.4000E+01
    -49.719  0.0000E+00  0.4000E+01
    -49.698  0.0000E+00  0.4000E+01
    -49.676  0.0000E+00  0.4000E+01
    -49.655  0.0000E+00  0.4000E+01
    -49.634  0.0000E+00  0.4000E+01
    -49.613  0.0000E+00  0.4000E+01
    -49.591  0.0000E+00  0.4000E+01
    -49.570  0.0000E+00  0.4000E+01
    -49.549  0.0000E+00  0.4000E+01
    -49.527  0.0000E+00  0.4000E+01
    -49.506  0.0000E+00  0.4000E+01
    -49.485  0.0000E+00  0.4000E+01
    -49.464  0.0000E+00  0.4000E+01
    -49.442  0.0000E+00  0.4000E+01
    -49.421  0.0000E+00  0.4000E+01
    -49.400  0.0000E+00  0.4000E+01
    -49.378  0.0000E+00  0.4000E+01
    -49.357  0.0000E+00  0.4000E+01
    -49.336  0.0000E+00  0.4000E+01
    -49.314  0.0000E+00  0.4000E+01
    -49.293  0.0000E+00  0.4000E+01
    -49.272  0.0000E+00  0.4000E+01
    -49.251  0.0000E+00  0.4000E+01
    -49.229  0.0000E+00  0.4000E+01
    -49.208  0.0000E+00  0.4000E+01
    -49.187  0.0000E+00  0.4000E+01
    -49.165  0.0000E+00  0.4000E+01
    -49.144  0.0000E+00  0.4000E+01
    -49.123  0.0000E+00  0.4000E+01
    -49.102  0.0000E+00  0.4000E+01
    -49.080  0.0000E+00  0.4000E+01
    -49.059  0.0000E+00  0.4000E+01
    -49.038  0.0000E+00  0.4000E+01
    -49.016  0.0000E+00  0.4000E+01
    -48.995  0.0000E+00  0.4000E+01
    -48.974  0.0000E+00  0.4000E+01
    -48.953  0.0000E+00  0.4000E+01
    -48.931  0.0000E+00  0.4000E+01
    -48.910  0.0000E+00  0.4000E+01
    -48.889  0.0000E+00  0.4000E+01
    -48.867  0.0000E+00  0.4000E+01
    -48.846  0.0000E+00  0.4000E+01
    -48.825  0.0000E+00  0.4000E+01
    -48.804  0.0000E+00  0.4000E+01
    -48.782  0.0000E+00  0.4000E+01
    -48.761  0.0000E+00  0.4000E+01
    -48.740  0.0000E+00  0.4000E+01
    -48.718  0.0000E+00  0.4000E+01
    -48.697  0.0000E+00  0.4000E+01
    -48.676  0.0000E+00  0.4000E+01
    -48.655  0.0000E+00  0.4000E+01
    -48.633  0.0000E+00  0.4000E+01
    -48.612  0.0000E+00  0.4000E+01
    -48.591  0.0000E+00  0.4000E+01
    -48.569  0.0000E+00  0.4000E+01
    -48.548  0.0000E+00  0.4000E+01
    -48.527  0.0000E+00  0.4000E+01
    -48.505  0.0000E+00  0.4000E+01
    -48.484  0.0000E+00  0.4000E+01
    -48.463  0.0000E+00  0.4000E+01
    -48.442  0.0000E+00  0.4000E+01
    -48.420  0.0000E+00  0.4000E+01
    -48.399  0.0000E+00  0.4000E+01
    -48.378  0.0000E+00  0.4000E+01
    -48.356  0.0000E+00  0.4000E+01
    -48.335  0.0000E+00  0.4000E+01
    -48.314  0.0000E+00  0.4000E+01
    -48.293  0.0000E+00  0.4000E+01
    -48.271  0.0000E+00  0.4000E+01
    -48.250  0.0000E+00  0.4000E+01
    -48.229  0.0000E+00  0.4000E+01
    -48.207  0.0000E+00  0.4000E+01
    -48.186  0.0000E+00  0.4000E+01
    -48.165  0.0000E+00  0.4000E+01
    -48.144  0.0000E+00  0.4000E+01
    -48.122  0.0000E+00  0.4000E+01
    -48.101  0.0000E+00  0.4000E+01
    -48.080  0.0000E+00  0.4000E+01
    -48.058  0.0000E+00  0.4000E+01
    -48.037  0.0000E+00  0.4000E+01
    -48.016  0.0000E+00  0.4000E+01
    -47.995  0.0000E+00  0.4000E+01
    -47.973  0.0000E+00  0.4000E+01
    -47.952  0.0000E+00  0.4000E+01
    -47.931  0.0000E+00  0.4000E+01
    -47.909  0.0000E+00  0.4000E+01
    -47.888  0.0000E+00  0.4000E+01
    -47.867  0.0000E+00  0.4000E+01
    -47.845  0.0000E+00  0.4000E+01
    -47.824  0.0000E+00  0.4000E+01
    -47.803  0.0000E+00  0.4000E+01
    -47.782  0.0000E+00  0.4000E+01
    -47.760  0.0000E+00  0.4000E+01
    -47.739  0.0000E+00  0.4000E+01
    -47.718  0.0000E+00  0.4000E+01
    -47.696  0.0000E+00  0.4000E+01
    -47.675  0.0000E+00  0.4000E+01
    -47.654  0.0000E+00  0.4000E+01
    -47.633  0.0000E+00  0.4000E+01
    -47.611  0.0000E+00  0.4000E+01
    -47.590  0.0000E+00  0.4000E+01
    -47.569  0.0000E+00  0.4000E+01
    -47.547  0.0000E+00  0.4000E+01
    -47.526  0.0000E+00  0.4000E+01
    -47.505  0.0000E+00  0.4000E+01
    -47.484  0.0000E+00  0.4000E+01
    -47.462  0.0000E+00  0.4000E+01
    -47.441  0.0000E+00  0.4000E+01
    -47.420  0.0000E+00  0.4000E+01
    -47.398  0.0000E+00  0.4000E+01
    -47.377  0.0000E+00  0.4000E+01
    -47.356  0.0000E+00  0.4000E+01
    -47.335  0.0000E+00  0.4000E+01
    -47.313  0.0000E+00  0.4000E+01
    -47.292  0.0000E+00  0.4000E+01
    -47.271  0.0000E+00  0.4000E+01
    -47.249  0.0000E+00  0.4000E+01
    -47.228  0.0000E+00  0.4000E+01
    -47.207  0.0000E+00  0.4000E+01
    -47.186  0.0000E+00  0.4000E+01
    -47.164  0.0000E+00  0.4000E+01
    -47.143  0.0000E+00  0.4000E+01
    -47.122  0.0000E+00  0.4000E+01
    -47.100  0.0000E+00  0.4000E+01
    -47.079  0.0000E+00  0.4000E+01
    -47.058  0.0000E+00  0.4000E+01
    -47.036  0.0000E+00  0.4000E+01
    -47.015  0.0000E+00  0.4000E+01
    -46.994  0.0000E+00  0.4000E+01
    -46.973  0.0000E+00  0.4000E+01
    -46.951  0.0000E+00  0.4000E+01
    -46.930  0.0000E+00  0.4000E+01
    -46.909  0.0000E+00  0.4000E+01
    -46.887  0.0000E+00  0.4000E+01
    -46.866  0.0000E+00  0.4000E+01
    -46.845  0.0000E+00  0.4000E+01
    -46.824  0.0000E+00  0.4000E+01
    -46.802  0.0000E+00  0.4000E+01
    -46.781  0.0000E+00  0.4000E+01
    -46.760  0.0000E+00  0.4000E+01
    -46.738  0.0000E+00  0.4000E+01
    -46.717  0.0000E+00  0.4000E+01
    -46.696  0.0000E+00  0.4000E+01
    -46.675  0.0000E+00  0.4000E+01
    -46.653  0.0000E+00  0.4000E+01
    -46.632  0.0000E+00  0.4000E+01
    -46.611  0.0000E+00  0.4000E+01
    -46.589  0.0000E+00  0.4000E+01
    -46.568  0.0000E+00  0.4000E+01
    -46.547  0.0000E+00  0.4000E+01
    -46.526  0.0000E+00  0.4000E+01
    -46.504  0.0000E+00  0.4000E+01
    -46.483  0.0000E+00  0.4000E+01
    -46.462  0.0000E+00  0.4000E+01
    -46.440  0.0000E+00  0.4000E+01
    -46.419  0.0000E+00  0.4000E+01
    -46.398  0.0000E+00  0.4000E+01
    -46.377  0.0000E+00  0.4000E+01
    -46.355  0.0000E+00  0.4000E+01
    -46.334  0.0000E+00  0.4000E+01
    -46.313  0.0000E+00  0.4000E+01
    -46.291  0.0000E+00  0.4000E+01
    -46.270  0.0000E+00  0.4000E+01
    -46.249  0.0000E+00  0.4000E+01
    -46.227  0.0000E+00  0.4000E+01
    -46.206  0.0000E+00  0.4000E+01
    -46.185  0.0000E+00  0.4000E+01
    -46.164  0.0000E+00  0.4000E+01
    -46.142  0.0000E+00  0.4000E+01
    -46.121  0.0000E+00  0.4000E+01
    -46.100  0.0000E+00  0.4000E+01
    -46.078  0.0000E+00  0.4000E+01
    -46.057  0.0000E+00  0.4000E+01
    -46.036  0.0000E+00  0.4000E+01
    -46.015  0.0000E+00  0.4000E+01
    -45.993  0.0000E+00  0.4000E+01
    -45.972  0.0000E+00  0.4000E+01
    -45.951  0.0000E+00  0.4000E+01
    -45.929  0.0000E+00  0.4000E+01
    -45.908  0.0000E+00  0.4000E+01
    -45.887  0.0000E+00  0.4000E+01
    -45.866  0.0000E+00  0.4000E+01
    -45.844  0.0000E+00  0.4000E+01
    -45.823  0.0000E+00  0.4000E+01
    -45.802  0.0000E+00  0.4000E+01
    -45.780  0.0000E+00  0.4000E+01
    -45.759  0.0000E+00  0.4000E+01
    -45.738  0.0000E+00  0.4000E+01
    -45.717  0.0000E+00  0.4000E+01
    -45.695  0.0000E+00  0.4000E+01
    -45.674  0.0000E+00  0.4000E+01
    -45.653  0.0000E+00  0.4000E+01
    -45.631  0.0000E+00  0.4000E+01
    -45.610  0.0000E+00  0.4000E+01
    -45.589  0.0000E+00  0.4000E+01
    -45.568  0.0000E+00  0.4000E+01
    -45.546  0.0000E+00  0.4000E+01
    -45.525  0.0000E+00  0.4000E+01
    -45.504  0.0000E+00  0.4000E+01
    -45.482  0.0000E+00  0.4000E+01
    -45.461  0.0000E+00  0.4000E+01
    -45.440  0.0000E+00  0.4000E+01
    -45.418  0.0000E+00  0.4000E+01
    -45.397  0.0000E+00  0.4000E+01
    -45.376  0.0000E+00  0.4000E+01
    -45.355  0.0000E+00  0.4000E+01
    -45.333  0.0000E+00  0.4000E+01
    -45.312  0.0000E+00  0.4000E+01
    -45.291  0.0000E+00  0.4000E+01
    -45.269  0.0000E+00  0.4000E+01
    -45.248  0.0000E+00  0.4000E+01
    -45.227  0.0000E+00  0.4000E+01
    -45.206  0.0000E+00  0.4000E+01
    -45.184  0.0000E+00  0.4000E+01
    -45.163  0.0000E+00  0.4000E+01
    -45.142  0.0000E+00  0.4000E+01
    -45.120  0.0000E+00  0.4000E+01
    -45.099  0.0000E+00  0.4000E+01
    -45.078  0.0000E+00  0.4000E+01
    -45.057  0.0000E+00  0.4000E+01
    -45.035  0.0000E+00  0.4000E+01
    -45.014  0.0000E+00  0.4000E+01
    -44.993  0.0000E+00  0.4000E+01
    -44.971  0.0000E+00  0.4000E+01
    -44.950  0.0000E+00  0.4000E+01
    -44.929  0.0000E+00  0.4000E+01
    -44.908  0.0000E+00  0.4000E+01
    -44.886  0.0000E+00  0.4000E+01
    -44.865  0.0000E+00  0.4000E+01
    -44.844  0.0000E+00  0.4000E+01
    -44.822  0.0000E+00  0.4000E+01
    -44.801  0.0000E+00  0.4000E+01
    -44.780  0.0000E+00  0.4000E+01
    -44.758  0.0000E+00  0.4000E+01
    -44.737  0.0000E+00  0.4000E+01
    -44.716  0.0000E+00  0.4000E+01
    -44.695  0.0000E+00  0.4000E+01
    -44.673  0.0000E+00  0.4000E+01
    -44.652  0.0000E+00  0.4000E+01
    -44.631  0.0000E+00  0.4000E+01
    -44.609  0.0000E+00  0.4000E+01
    -44.588  0.0000E+00  0.4000E+01
    -44.567  0.0000E+00  0.4000E+01
    -44.546  0.0000E+00  0.4000E+01
    -44.524  0.0000E+00  0.4000E+01
    -44.503  0.0000E+00  0.4000E+01
    -44.482  0.0000E+00  0.4000E+01
    -44.460  0.0000E+00  0.4000E+01
    -44.439  0.0000E+00  0.4000E+01
    -44.418  0.0000E+00  0.4000E+01
    -44.397  0.0000E+00  0.4000E+01
    -44.375  0.0000E+00  0.4000E+01
    -44.354  0.0000E+00  0.4000E+01
    -44.333  0.0000E+00  0.4000E+01
    -44.311  0.0000E+00  0.4000E+01
    -44.290  0.0000E+00  0.4000E+01
    -44.269  0.0000E+00  0.4000E+01
    -44.248  0.0000E+00  0.4000E+01
    -44.226  0.0000E+00  0.4000E+01
    -44.205  0.0000E+00  0.4000E+01
    -44.184  0.0000E+00  0.4000E+01
    -44.162  0.0000E+00  0.4000E+01
    -44.141  0.0000E+00  0.4000E+01
    -44.120  0.0000E+00  0.4000E+01
    -44.099  0.0000E+00  0.4000E+01
    -44.077  0.0000E+00  0.4000E+01
    -44.056  0.0000E+00  0.4000E+01
    -44.035  0.0000E+00  0.4000E+01
    -44.013  0.0000E+00  0.4000E+01
    -43.992  0.0000E+00  0.4000E+01
    -43.971  0.0000E+00  0.4000E+01
    -43.949  0.0000E+00  0.4000E+01
    -43.928  0.0000E+00  0.4000E+01
    -43.907  0.0000E+00  0.4000E+01
    -43.886  0.0000E+00  0.4000E+01
    -43.864  0.0000E+00  0.4000E+01
    -43.843  0.0000E+00  0.4000E+01
    -43.822  0.0000E+00  0.4000E+01
    -43.800  0.0000E+00  0.4000E+01
    -43.779  0.0000E+00  0.4000E+01
    -43.758  0.0000E+00  0.4000E+01
    -43.737  0.0000E+00  0.4000E+01
    -43.715  0.0000E+00  0.4000E+01
    -43.694  0.0000E+00  0.4000E+01
    -43.673  0.0000E+00  0.4000E+01
    -43.651  0.0000E+00  0.4000E+01
    -43.630  0.0000E+00  0.4000E+01
    -43.609  0.0000E+00  0.4000E+01
    -43.588  0.0000E+00  0.4000E+01
    -43.566  0.0000E+00  0.4000E+01
    -43.545  0.0000E+00  0.4000E+01
    -43.524  0.0000E+00  0.4000E+01
    -43.502  0.0000E+00  0.4000E+01
    -43.481  0.0000E+00  0.4000E+01
    -43.460  0.0000E+00  0.4000E+01
    -43.439  0.0000E+00  0.4000E+01
    -43.417  0.0000E+00  0.4000E+01
    -43.396  0.0000E+00  0.4000E+01
    -43.375  0.0000E+00  0.4000E+01
    -43.353  0.0000E+00  0.4000E+01
    -43.332  0.0000E+00  0.4000E+01
    -43.311  0.0000E+00  0.4000E+01
    -43.290  0.0000E+00  0.4000E+01
    -43.268  0.0000E+00  0.4000E+01
    -43.247  0.0000E+00  0.4000E+01
    -43.226  0.0000E+00  0.4000E+01
    -43.204  0.0000E+00  0.4000E+01
    -43.183  0.0000E+00  0.4000E+01
    -43.162  0.0000E+00  0.4000E+01
    -43.140  0.0000E+00  0.4000E+01
    -43.119  0.0000E+00  0.4000E+01
    -43.098  0.0000E+00  0.4000E+01
    -43.077  0.0000E+00  0.4000E+01
    -43.055  0.0000E+00  0.4000E+01
    -43.034  0.0000E+00  0.4000E+01
    -43.013  0.0000E+00  0.4000E+01
    -42.991  0.0000E+00  0.4000E+01
    -42.970  0.0000E+00  0.4000E+01
    -42.949  0.0000E+00  0.4000E+01
    -42.928  0.0000E+00  0.4000E+01
    -42.906  0.0000E+00  0.4000E+01
    -42.885  0.0000E+00  0.4000E+01
    -42.864  0.0000E+00  0.4000E+01
    -42.842  0.0000E+00  0.4000E+01
    -42.821  0.0000E+00  0.4000E+01
    -42.800  0.0000E+00  0.4000E+01
    -42.779  0.0000E+00  0.4000E+01
    -42.757  0.0000E+00  0.4000E+01
    -42.736  0.0000E+00  0.4000E+01
    -42.715  0.0000E+00  0.4000E+01
    -42.693  0.0000E+00  0.4000E+01
    -42.672  0.0000E+00  0.4000E+01
    -42.651  0.0000E+00  0.4000E+01
    -42.630  0.0000E+00  0.4000E+01
    -42.608  0.0000E+00  0.4000E+01
    -42.587  0.0000E+00  0.4000E+01
    -42.566  0.0000E+00  0.4000E+01
    -42.544  0.0000E+00  0.4000E+01
    -42.523  0.0000E+00  0.4000E+01
    -42.502  0.0000E+00  0.4000E+01
    -42.481  0.0000E+00  0.4000E+01
    -42.459  0.0000E+00  0.4000E+01
    -42.438  0.0000E+00  0.4000E+01
    -42.417  0.0000E+00  0.4000E+01
    -42.395  0.0000E+00  0.4000E+01
    -42.374  0.0000E+00  0.4000E+01
    -42.353  0.0000E+00  0.4000E+01
    -42.331  0.0000E+00  0.4000E+01
    -42.310  0.0000E+00  0.4000E+01
    -42.289  0.0000E+00  0.4000E+01
    -42.268  0.0000E+00  0.4000E+01
    -42.246  0.0000E+00  0.4000E+01
    -42.225  0.0000E+00  0.4000E+01
    -42.204  0.0000E+00  0.4000E+01
    -42.182  0.0000E+00  0.4000E+01
    -42.161  0.0000E+00  0.4000E+01
    -42.140  0.0000E+00  0.4000E+01
    -42.119  0.0000E+00  0.4000E+01
    -42.097  0.0000E+00  0.4000E+01
    -42.076  0.0000E+00  0.4000E+01
    -42.055  0.0000E+00  0.4000E+01
    -42.033  0.0000E+00  0.4000E+01
    -42.012  0.0000E+00  0.4000E+01
    -41.991  0.0000E+00  0.4000E+01
    -41.970  0.0000E+00  0.4000E+01
    -41.948  0.0000E+00  0.4000E+01
    -41.927  0.0000E+00  0.4000E+01
    -41.906  0.0000E+00  0.4000E+01
    -41.884  0.0000E+00  0.4000E+01
    -41.863  0.0000E+00  0.4000E+01
    -41.842  0.0000E+00  0.4000E+01
    -41.821  0.0000E+00  0.4000E+01
    -41.799  0.0000E+00  0.4000E+01
    -41.778  0.0000E+00  0.4000E+01
    -41.757  0.0000E+00  0.4000E+01
    -41.735  0.0000E+00  0.4000E+01
    -41.714  0.0000E+00  0.4000E+01
    -41.693  0.0000E+00  0.4000E+01
    -41.671  0.0000E+00  0.4000E+01
    -41.650  0.0000E+00  0.4000E+01
    -41.629  0.0000E+00  0.4000E+01
    -41.608  0.0000E+00  0.4000E+01
    -41.586  0.0000E+00  0.4000E+01
    -41.565  0.0000E+00  0.4000E+01
    -41.544  0.0000E+00  0.4000E+01
    -41.522  0.0000E+00  0.4000E+01
    -41.501  0.0000E+00  0.4000E+01
    -41.480  0.0000E+00  0.4000E+01
    -41.459  0.0000E+00  0.4000E+01
    -41.437  0.0000E+00  0.4000E+01
    -41.416  0.0000E+00  0.4000E+01
    -41.395  0.0000E+00  0.4000E+01
    -41.373  0.0000E+00  0.4000E+01
    -41.352  0.0000E+00  0.4000E+01
    -41.331  0.0000E+00  0.4000E+01
    -41.310  0.0000E+00  0.4000E+01
    -41.288  0.0000E+00  0.4000E+01
    -41.267  0.0000E+00  0.4000E+01
    -41.246  0.0000E+00  0.4000E+01
    -41.224  0.0000E+00  0.4000E+01
    -41.203  0.0000E+00  0.4000E+01
    -41.182  0.0000E+00  0.4000E+01
    -41.161  0.0000E+00  0.4000E+01
    -41.139  0.0000E+00  0.4000E+01
    -41.118  0.0000E+00  0.4000E+01
    -41.097  0.0000E+00  0.4000E+01
    -41.075  0.0000E+00  0.4000E+01
    -41.054  0.0000E+00  0.4000E+01
    -41.033  0.0000E+00  0.4000E+01
    -41.012  0.0000E+00  0.4000E+01
    -40.990  0.0000E+00  0.4000E+01
    -40.969  0.0000E+00  0.4000E+01
    -40.948  0.0000E+00  0.4000E+01
    -40.926  0.0000E+00  0.4000E+01
    -40.905  0.0000E+00  0.4000E+01
    -40.884  0.0000E+00  0.4000E+01
    -40.862  0.0000E+00  0.4000E+01
    -40.841  0.0000E+00  0.4000E+01
    -40.820  0.0000E+00  0.4000E+01
    -40.799  0.0000E+00  0.4000E+01
    -40.777  0.0000E+00  0.4000E+01
    -40.756  0.0000E+00  0.4000E+01
    -40.735  0.0000E+00  0.4000E+01
    -40.713  0.0000E+00  0.4000E+01
    -40.692  0.0000E+00  0.4000E+01
    -40.671  0.0000E+00  0.4000E+01
    -40.650  0.0000E+00  0.4000E+01
    -40.628  0.0000E+00  0.4000E+01
    -40.607  0.0000E+00  0.4000E+01
    -40.586  0.0000E+00  0.4000E+01
    -40.564  0.0000E+00  0.4000E+01
    -40.543  0.0000E+00  0.4000E+01
    -40.522  0.0000E+00  0.4000E+01
    -40.501  0.0000E+00  0.4000E+01
    -40.479  0.0000E+00  0.4000E+01
    -40.458  0.0000E+00  0.4000E+01
    -40.437  0.0000E+00  0.4000E+01
    -40.415  0.0000E+00  0.4000E+01
    -40.394  0.0000E+00  0.4000E+01
    -40.373  0.0000E+00  0.4000E+01
    -40.352  0.0000E+00  0.4000E+01
    -40.330  0.0000E+00  0.4000E+01
    -40.309  0.0000E+00  0.4000E+01
    -40.288  0.0000E+00  0.4000E+01
    -40.266  0.0000E+00  0.4000E+01
    -40.245  0.0000E+00  0.4000E+01
    -40.224  0.0000E+00  0.4000E+01
    -40.203  0.0000E+00  0.4000E+01
    -40.181  0.0000E+00  0.4000E+01
    -40.160  0.0000E+00  0.4000E+01
    -40.139  0.0000E+00  0.4000E+01
    -40.117  0.0000E+00  0.4000E+01
    -40.096  0.0000E+00  0.4000E+01
    -40.075  0.0000E+00  0.4000E+01
    -40.053  0.0000E+00  0.4000E+01
    -40.032  0.0000E+00  0.4000E+01
    -40.011  0.0000E+00  0.4000E+01
    -39.990  0.0000E+00  0.4000E+01
    -39.968  0.0000E+00  0.4000E+01
    -39.947  0.0000E+00  0.4000E+01
    -39.926  0.0000E+00  0.4000E+01
    -39.904  0.0000E+00  0.4000E+01
    -39.883  0.0000E+00  0.4000E+01
    -39.862  0.0000E+00  0.4000E+01
    -39.841  0.0000E+00  0.4000E+01
    -39.819  0.0000E+00  0.4000E+01
    -39.798  0.0000E+00  0.4000E+01
    -39.777  0.0000E+00  0.4000E+01
    -39.755  0.0000E+00  0.4000E+01
    -39.734  0.0000E+00  0.4000E+01
    -39.713  0.0000E+00  0.4000E+01
    -39.692  0.0000E+00  0.4000E+01
    -39.670  0.0000E+00  0.4000E+01
    -39.649  0.0000E+00  0.4000E+01
    -39.628  0.0000E+00  0.4000E+01
    -39.606  0.0000E+00  0.4000E+01
    -39.585  0.0000E+00  0.4000E+01
    -39.564  0.0000E+00  0.4000E+01
    -39.543  0.0000E+00  0.4000E+01
    -39.521  0.0000E+00  0.4000E+01
    -39.500  0.0000E+00  0.4000E+01
    -39.479  0.0000E+00  0.4000E+01
    -39.457  0.0000E+00  0.4000E+01
    -39.436  0.0000E+00  0.4000E+01
    -39.415  0.0000E+00  0.4000E+01
    -39.394  0.0000E+00  0.4000E+01
    -39.372  0.0000E+00  0.4000E+01
    -39.351  0.0000E+00  0.4000E+01
    -39.330  0.0000E+00  0.4000E+01
    -39.308  0.0000E+00  0.4000E+01
    -39.287  0.0000E+00  0.4000E+01
    -39.266  0.0000E+00  0.4000E+01
    -39.244  0.0000E+00  0.4000E+01
    -39.223  0.0000E+00  0.4000E+01
    -39.202  0.0000E+00  0.4000E+01
    -39.181  0.0000E+00  0.4000E+01
    -39.159  0.0000E+00  0.4000E+01
    -39.138  0.0000E+00  0.4000E+01
    -39.117  0.0000E+00  0.4000E+01
    -39.095  0.0000E+00  0.4000E+01
    -39.074  0.0000E+00  0.4000E+01
    -39.053  0.0000E+00  0.4000E+01
    -39.032  0.0000E+00  0.4000E+01
    -39.010  0.0000E+00  0.4000E+01
    -38.989  0.0000E+00  0.4000E+01
    -38.968  0.0000E+00  0.4000E+01
    -38.946  0.0000E+00  0.4000E+01
    -38.925  0.0000E+00  0.4000E+01
    -38.904  0.0000E+00  0.4000E+01
    -38.883  0.0000E+00  0.4000E+01
    -38.861  0.0000E+00  0.4000E+01
    -38.840  0.0000E+00  0.4000E+01
    -38.819  0.0000E+00  0.4000E+01
    -38.797  0.0000E+00  0.4000E+01
    -38.776  0.0000E+00  0.4000E+01
    -38.755  0.0000E+00  0.4000E+01
    -38.734  0.0000E+00  0.4000E+01
    -38.712  0.0000E+00  0.4000E+01
    -38.691  0.0000E+00  0.4000E+01
    -38.670  0.0000E+00  0.4000E+01
    -38.648  0.0000E+00  0.4000E+01
    -38.627  0.0000E+00  0.4000E+01
    -38.606  0.0000E+00  0.4000E+01
    -38.584  0.0000E+00  0.4000E+01
    -38.563  0.0000E+00  0.4000E+01
    -38.542  0.0000E+00  0.4000E+01
    -38.521  0.0000E+00  0.4000E+01
    -38.499  0.0000E+00  0.4000E+01
    -38.478  0.0000E+00  0.4000E+01
    -38.457  0.0000E+00  0.4000E+01
    -38.435  0.0000E+00  0.4000E+01
    -38.414  0.0000E+00  0.4000E+01
    -38.393  0.0000E+00  0.4000E+01
    -38.372  0.0000E+00  0.4000E+01
    -38.350  0.0000E+00  0.4000E+01
    -38.329  0.0000E+00  0.4000E+01
    -38.308  0.0000E+00  0.4000E+01
    -38.286  0.0000E+00  0.4000E+01
    -38.265  0.0000E+00  0.4000E+01
    -38.244  0.0000E+00  0.4000E+01
    -38.223  0.0000E+00  0.4000E+01
    -38.201  0.0000E+00  0.4000E+01
    -38.180  0.0000E+00  0.4000E+01
    -38.159  0.0000E+00  0.4000E+01
    -38.137  0.0000E+00  0.4000E+01
    -38.116  0.0000E+00  0.4000E+01
    -38.095  0.0000E+00  0.4000E+01
    -38.074  0.0000E+00  0.4000E+01
    -38.052  0.0000E+00  0.4000E+01
    -38.031  0.0000E+00  0.4000E+01
    -38.010  0.0000E+00  0.4000E+01
    -37.988  0.0000E+00  0.4000E+01
    -37.967  0.0000E+00  0.4000E+01
    -37.946  0.0000E+00  0.4000E+01
    -37.925  0.0000E+00  0.4000E+01
    -37.903  0.0000E+00  0.4000E+01
    -37.882  0.0000E+00  0.4000E+01
    -37.861  0.0000E+00  0.4000E+01