    6    6    1    1
  0.1016045E+03  0.3770000E-09  0.3770000E-09  0.4952800E-08  0.5000000E-15
  1.000000000000000E-004
  CAR 
 ZrSe2-Bilayer_AA_-                      
     48    240     40
 
  0.0000000E+00  0.0000000E+00  0.0000000E+00  0.4166667E-02
      1        -52.522444   1.000000
      2        -52.522443   1.000000
      3        -30.568140   1.000000
      4        -30.567925   1.000000
      5        -30.456775   1.000000
      6        -30.456767   1.000000
      7        -30.456726   1.000000
      8        -30.456718   1.000000
      9        -16.253190   1.000000
     10        -16.021541   1.000000
     11        -15.347422   1.000000
     12        -15.092883   1.000000
     13         -7.618524   1.000000
     14         -6.908080   1.000000
     15         -5.637092   1.000000
     16         -5.637090   1.000000
     17         -5.597367   1.000000
     18         -5.597364   1.000000
     19         -4.774167   1.000000
     20         -3.607463   1.000000
     21         -3.192181   1.000025
     22         -3.192180   1.000025
     23         -3.064538   0.951013
     24         -3.064536   0.951002
     25         -1.991416   0.000000
     26         -1.991414   0.000000
     27         -1.971815   0.000000
     28         -1.971812   0.000000
     29         -1.496965   0.000000
     30         -1.232109   0.000000
     31          1.233209   0.000000
     32          1.233212   0.000000
     33          1.506445   0.000000
     34          1.506446   0.000000
     35          1.513140   0.000000
     36          1.828908   0.000000
     37          2.123212   0.000000
     38          2.407353   0.000000
     39          2.468905   0.000000
     40          2.588153   0.000000
 
  0.6329114E-02  0.0000000E+00  0.0000000E+00  0.4166667E-02
      1        -52.522440   1.000000
      2        -52.522438   1.000000
      3        -30.568123   1.000000
      4        -30.567905   1.000000
      5        -30.456852   1.000000
      6        -30.456803   1.000000
      7        -30.456801   1.000000
      8        -30.456741   1.000000
      9        -16.252827   1.000000
     10        -16.021184   1.000000
     11        -15.347368   1.000000
     12        -15.092893   1.000000
     13         -7.618020   1.000000
     14         -6.907667   1.000000
     15         -5.637946   1.000000
     16         -5.636917   1.000000
     17         -5.599880   1.000000
     18         -5.597138   1.000000
     19         -4.771563   1.000000
     20         -3.607177   1.000000
     21         -3.196409   1.000015
     22         -3.194152   1.000019
     23         -3.068961   0.980233
     24         -3.066406   0.964269
     25         -1.990256   0.000000
     26         -1.989496   0.000000
     27         -1.970350   0.000000
     28         -1.969608   0.000000
     29         -1.496170   0.000000
     30         -1.230731   0.000000
     31          1.229077   0.000000
     32          1.232820   0.000000
     33          1.501853   0.000000
     34          1.506198   0.000000
     35          1.515323   0.000000
     36          1.830202   0.000000
     37          2.128412   0.000000
     38          2.411701   0.000000
     39          2.469818   0.000000
     40          2.588147   0.000000
 
  0.1265823E-01  0.0000000E+00  0.0000000E+00  0.4166667E-02
      1        -52.522424   1.000000
      2        -52.522423   1.000000
      3        -30.568062   1.000000
      4        -30.567848   1.000000
      5        -30.457075   1.000000
      6        -30.457042   1.000000
      7        -30.456845   1.000000
      8        -30.456800   1.000000
      9        -16.251734   1.000000
     10        -16.020113   1.000000
     11        -15.347206   1.000000
     12        -15.092920   1.000000
     13         -7.616496   1.000000
     14         -6.906428   1.000000
     15         -5.640515   1.000000
     16         -5.636381   1.000000
     17         -5.607301   1.000000
     18         -5.596453   1.000000
     19         -4.763857   1.000000
     20         -3.606360   1.000000
     21         -3.208930   1.000003
     22         -3.200019   1.000009
     23         -3.082081   1.027649
     24         -3.071949   0.995861
     25         -1.986865   0.000000
     26         -1.983751   0.000000
     27         -1.966126   0.000000
     28         -1.963062   0.000000
     29         -1.493768   0.000000
     30         -1.226595   0.000000
     31          1.216907   0.000000
     32          1.231533   0.000000
     33          1.489175   0.000000
     34          1.505454   0.000000
     35          1.521008   0.000000
     36          1.834047   0.000000
     37          2.143745   0.000000
     38          2.424352   0.000000
     39          2.473181   0.000000
     40          2.591789   0.000000
 
  0.1898734E-01  0.0000000E+00  0.0000000E+00  0.4166667E-02
      1        -52.522397   1.000000
      2        -52.522396   1.000000
      3        -30.567963   1.000000
      4        -30.567755   1.000000
      5        -30.457453   1.000000
      6        -30.457426   1.000000
      7        -30.456919   1.000000
      8        -30.456882   1.000000
      9        -16.249913   1.000000
     10        -16.018326   1.000000
     11        -15.346936   1.000000
     12        -15.092967   1.000000
     13         -7.613958   1.000000
     14         -6.904364   1.000000
     15         -5.644856   1.000000
     16         -5.635490   1.000000
     17         -5.619243   1.000000
     18         -5.595313   1.000000
     19         -4.751363   1.000000
     20         -3.605147   1.000000
     21         -3.229266   1.000000
     22         -3.209629   1.000003
     23         -3.103530   1.029590
     24         -3.081049   1.025707
     25         -1.981506   0.000000
     26         -1.974229   0.000000
     27         -1.959608   0.000000
     28         -1.952403   0.000000
     29         -1.489717   0.000000
     30         -1.219718   0.000000
     31          1.197626   0.000000
     32          1.229455   0.000000
     33          1.469116   0.000000
     34          1.504147   0.000000
     35          1.530168   0.000000
     36          1.840349   0.000000
     37          2.168453   0.000000
     38          2.443208   0.000000
     39          2.478766   0.000000
     40          2.593592   0.000000
 
  0.2531646E-01  0.0000000E+00  0.0000000E+00  0.4166667E-02
      1        -52.522361   1.000000
      2        -52.522360   1.000000
      3        -30.567833   1.000000
      4        -30.567632   1.000000
      5        -30.457991   1.000000
      6        -30.457953   1.000000
      7        -30.457034   1.000000
      8        -30.456996   1.000000
      9        -16.247369   1.000000
     10        -16.015829   1.000000
     11        -15.346557   1.000000
     12        -15.093032   1.000000
     13         -7.610413   1.000000
     14         -6.901480   1.000000
     15         -5.651287   1.000000
     16         -5.634896   1.000000
     17         -5.634252   1.000000
     18         -5.593725   1.000000
     19         -4.734548   1.000000
     20         -3.603796   1.000000
     21         -3.256662   1.000000
     22         -3.222763   1.000000
     23         -3.132737   1.007023
     24         -3.093509   1.035323
     25         -1.974601   0.000000
     26         -1.961045   0.000000
     27         -1.951453   0.000000
     28         -1.937948   0.000000
     29         -1.483957   0.000000
     30         -1.210127   0.000000
     31          1.172427   0.000000
     32          1.226576   0.000000
     33          1.442512   0.000000
     34          1.502347   0.000000
     35          1.542881   0.000000
     36          1.848988   0.000000
     37          2.201456   0.000000
     38          2.463161   0.000000
     39          2.491690   0.000000
     40          2.598040   0.000000
 
  0.3164557E-01  0.0000000E+00  0.0000000E+00  0.4166667E-02
      1        -52.522315   1.000000
      2        -52.522313   1.000000
      3        -30.567667   1.000000
      4        -30.567469   1.000000
      5        -30.458678   1.000000
      6        -30.458638   1.000000
      7        -30.457181   1.000000
      8        -30.457140   1.000000
      9        -16.244101   1.000000
     10        -16.012622   1.000000
     11        -15.346072   1.000000
     12        -15.093115   1.000000
     13         -7.605862   1.000000
     14         -6.897787   1.000000
     15         -5.662066   1.000000
     16         -5.651422   1.000000
     17         -5.632666   1.000000
     18         -5.591690   1.000000
     19         -4.713963   1.000000
     20         -3.602746   1.000000
     21         -3.290078   1.000000
     22         -3.239135   1.000000
     23         -3.168991   1.000328
     24         -3.109076   1.024629
     25         -1.966691   0.000000
     26         -1.944380   0.000000
     27         -1.942398   0.000000
     28         -1.920059   0.000000
     29         -1.476416   0.000000
     30         -1.197866   0.000000
     31          1.142626   0.000000
     32          1.222940   0.000000
     33          1.410402   0.000000
     34          1.500092   0.000000
     35          1.559101   0.000000
     36          1.859846   0.000000
     37          2.241546   0.000000
     38          2.476748   0.000000
     39          2.517230   0.000000
     40          2.603813   0.000000
 
  0.3797468E-01  0.0000000E+00  0.0000000E+00  0.4166667E-02
      1        -52.522258   1.000000
      2        -52.522256   1.000000
      3        -30.567468   1.000000
      4        -30.567276   1.000000
      5        -30.459517   1.000000
      6        -30.459481   1.000000
      7        -30.457352   1.000000
      8        -30.457314   1.000000
      9        -16.240115   1.000000
     10        -16.008710   1.000000
     11        -15.345479   1.000000
     12        -15.093217   1.000000
     13         -7.600310   1.000000
     14         -6.893296   1.000000
     15         -5.681986   1.000000
     16         -5.663389   1.000000
     17         -5.630739   1.000000
     18         -5.589224   1.000000
     19         -4.690198   1.000000
     20         -3.602762   1.000000
     21         -3.328132   1.000000
     22         -3.258427   1.000000
     23         -3.211525   1.000002
     24         -3.127456   1.009842
     25         -1.958353   0.000000
     26         -1.933172   0.000000
     27         -1.924478   0.000000
     28         -1.899118   0.000000
     29         -1.467040   0.000000
     30         -1.183024   0.000000
     31          1.109485   0.000000
     32          1.218593   0.000000
     33          1.373847   0.000000
     34          1.497404   0.000000
     35          1.578714   0.000000
     36          1.872825   0.000000
     37          2.287507   0.000000
     38          2.486740   0.000000
     39          2.549783   0.000000
     40          2.610724   0.000000
 
  0.4430380E-01  0.0000000E+00  0.0000000E+00  0.4166667E-02
      1        -52.522190   1.000000
      2        -52.522190   1.000000
      3        -30.567239   1.000000
      4        -30.567039   1.000000
      5        -30.460491   1.000000
      6        -30.460486   1.000000
      7        -30.457555   1.000000
      8        -30.457525   1.000000
      9        -16.235413   1.000000
     10        -16.004101   1.000000
     11        -15.344779   1.000000
     12        -15.093336   1.000000
     13         -7.593768   1.000000
     14         -6.888020   1.000000
     15         -5.707106   1.000000
     16         -5.674119   1.000000
     17         -5.628484   1.000000
     18         -5.586332   1.000000
     19         -4.663832   1.000000
     20         -3.605205   1.000000
     21         -3.368890   1.000000
     22         -3.280302   1.000000
     23         -3.259520   1.000000
     24         -3.148348   1.002189
     25         -1.950145   0.000000
     26         -1.924428   0.000000
     27         -1.901624   0.000000
     28         -1.875495   0.000000
     29         -1.455802   0.000000
     30         -1.165722   0.000000
     31          1.074109   0.000000
     32          1.213597   0.000000
     33          1.333807   0.000000
     34          1.494191   0.000000
     35          1.601557   0.000000
     36          1.887830   0.000000
     37          2.338231   0.000000
     38          2.496972   0.000000
     39          2.582912   0.000000
     40          2.625220   0.000000
 
  0.5063291E-01  0.0000000E+00  0.0000000E+00  0.4166667E-02
      1        -52.522115   1.000000
      2        -52.522114   1.000000
      3        -30.566974   1.000000
      4        -30.566779   1.000000
      5        -30.461640   1.000000
      6        -30.461638   1.000000
      7        -30.457808   1.000000
      8        -30.457779   1.000000
      9        -16.230006   1.000000
     10        -15.998799   1.000000
     11        -15.343972   1.000000
     12        -15.093474   1.000000
     13         -7.586251   1.000000
     14         -6.881972   1.000000
     15         -5.734814   1.000000
     16         -5.685638   1.000000
     17         -5.625910   1.000000
     18         -5.583028   1.000000
     19         -4.635400   1.000000
     20         -3.612541   1.000000
     21         -3.409452   1.000000
     22         -3.312124   1.000000
     23         -3.304423   1.000000
     24         -3.171438   1.000255
     25         -1.942549   0.000000
     26         -1.916704   0.000000
     27         -1.876131   0.000000
     28         -1.849563   0.000000
     29         -1.442726   0.000000
     30         -1.146134   0.000000
     31          1.037416   0.000000
     32          1.208003   0.000000
     33          1.291126   0.000000
     34          1.490596   0.000000
     35          1.627432   0.000000
     36          1.904780   0.000000
     37          2.392488   0.000000
     38          2.507222   0.000000
     39          2.611350   0.000000
     40          2.630178   0.000000
 
  0.5696203E-01  0.0000000E+00  0.0000000E+00  0.4166667E-02
      1        -52.522029   1.000000
      2        -52.522028   1.000000
      3        -30.566668   1.000000
      4        -30.566485   1.000000
      5        -30.462938   1.000000
      6        -30.462936   1.000000
      7        -30.458091   1.000000
      8        -30.458055   1.000000
      9        -16.223897   1.000000
     10        -15.992807   1.000000
     11        -15.343057   1.000000
     12        -15.093630   1.000000
     13         -7.577761   1.000000
     14         -6.875169   1.000000
     15         -5.764329   1.000000
     16         -5.698185   1.000000
     17         -5.623022   1.000000
     18         -5.579317   1.000000
     19         -4.605398   1.000000
     20         -3.628773   1.000000
     21         -3.445769   1.000000
     22         -3.368194   1.000000
     23         -3.330463   1.000000
     24         -3.196416   1.000015
     25         -1.935953   0.000000
     26         -1.910391   0.000000
     27         -1.848303   0.000000
     28         -1.821648   0.000000
     29         -1.427872   0.000000
     30         -1.124469   0.000000
     31          1.000198   0.000000
     32          1.201866   0.000000
     33          1.246509   0.000000
     34          1.486624   0.000000
     35          1.656117   0.000000
     36          1.923593   0.000000
     37          2.449219   0.000000
     38          2.519091   0.000000
     39          2.634417   0.000000
     40          2.640781   0.000000
 
  0.6329114E-01  0.0000000E+00  0.0000000E+00  0.4166667E-02
      1        -52.521933   1.000000
      2        -52.521933   1.000000
      3        -30.566342   1.000000
      4        -30.566152   1.000000
      5        -30.464381   1.000000
      6        -30.464373   1.000000
      7        -30.458402   1.000000
      8        -30.458374   1.000000
      9        -16.217092   1.000000
     10        -15.986139   1.000000
     11        -15.342037   1.000000
     12        -15.093802   1.000000
     13         -7.568314   1.000000
     14         -6.867634   1.000000
     15         -5.795177   1.000000
     16         -5.711735   1.000000
     17         -5.619835   1.000000
     18         -5.575220   1.000000
     19         -4.574281   1.000000
     20         -3.658205   1.000000
     21         -3.475343   1.000000
     22         -3.424883   1.000000
     23         -3.358125   1.000000
     24         -3.222993   1.000000
     25         -1.930641   0.000000
     26         -1.905753   0.000000
     27         -1.818457   0.000000
     28         -1.792060   0.000000
     29         -1.411367   0.000000
     30         -1.101003   0.000000
     31          0.963100   0.000000
     32          1.195287   0.000000
     33          1.200551   0.000000
     34          1.482302   0.000000
     35          1.687376   0.000000
     36          1.944181   0.000000
     37          2.505994   0.000000
     38          2.533398   0.000000
     39          2.652825   0.000000
     40          2.658684   0.000000
 
  0.6962025E-01  0.0000000E+00  0.0000000E+00  0.4166667E-02
      1        -52.521828   1.000000
      2        -52.521828   1.000000
      3        -30.565971   1.000000
      4        -30.565779   1.000000
      5        -30.465961   1.000000
      6        -30.465956   1.000000
      7        -30.458733   1.000000
      8        -30.458713   1.000000
      9        -16.209598   1.000000
     10        -15.978796   1.000000
     11        -15.340910   1.000000
     12        -15.093990   1.000000
     13         -7.557925   1.000000
     14         -6.859389   1.000000
     15         -5.827000   1.000000
     16         -5.726215   1.000000
     17         -5.616362   1.000000
     18         -5.570754   1.000000
     19         -4.542449   1.000000
     20         -3.701731   1.000000
     21         -3.511344   1.000000
     22         -3.467200   1.000000
     23         -3.387119   1.000000
     24         -3.250895   1.000000
     25         -1.926784   0.000000
     26         -1.902927   0.000000
     27         -1.786877   0.000000
     28         -1.761076   0.000000
     29         -1.393374   0.000000
     30         -1.076012   0.000000
     31          0.926654   0.000000
     32          1.153759   0.000000
     33          1.188341   0.000000
     34          1.477682   0.000000
     35          1.720956   0.000000
     36          1.966452   0.000000
     37          2.541522   0.000000
     38          2.569370   0.000000
     39          2.668224   0.000000
     40          2.682522   0.000000
 
  0.7594937E-01  0.0000000E+00  0.0000000E+00  0.4166667E-02
      1        -52.521713   1.000000
      2        -52.521713   1.000000
      3        -30.565568   1.000000
      4        -30.565378   1.000000
      5        -30.467679   1.000000
      6        -30.467675   1.000000
      7        -30.459103   1.000000
      8        -30.459084   1.000000
      9        -16.201427   1.000000
     10        -15.970792   1.000000
     11        -15.339676   1.000000
     12        -15.094195   1.000000
     13         -7.546611   1.000000
     14         -6.850461   1.000000
     15         -5.859496   1.000000
     16         -5.741514   1.000000
     17         -5.612620   1.000000
     18         -5.565934   1.000000
     19         -4.510288   1.000000
     20         -3.756262   1.000000
     21         -3.570143   1.000000
     22         -3.481063   1.000000
     23         -3.417198   1.000000
     24         -3.279884   1.000000
     25         -1.924487   0.000000
     26         -1.901959   0.000000
     27         -1.753840   0.000000
     28         -1.728952   0.000000
     29         -1.374089   0.000000
     30         -1.049812   0.000000
     31          0.891308   0.000000
     32          1.106553   0.000000
     33          1.181097   0.000000
     34          1.472808   0.000000
     35          1.756596   0.000000
     36          1.990308   0.000000
     37          2.557874   0.000000
     38          2.620705   0.000000
     39          2.686283   0.000000
     40          2.713419   0.000000
 
  0.8227848E-01  0.0000000E+00  0.0000000E+00  0.4166667E-02
      1        -52.521590   1.000000
      2        -52.521589   1.000000
      3        -30.565126   1.000000
      4        -30.564941   1.000000
      5        -30.469540   1.000000
      6        -30.469524   1.000000
      7        -30.459502   1.000000
      8        -30.459478   1.000000
      9        -16.192586   1.000000
     10        -15.962133   1.000000
     11        -15.338336   1.000000
     12        -15.094416   1.000000
     13         -7.534392   1.000000
     14         -6.840880   1.000000
     15         -5.892417   1.000000
     16         -5.757534   1.000000
     17         -5.608627   1.000000
     18         -5.560780   1.000000
     19         -4.478164   1.000000
     20         -3.818150   1.000000
     21         -3.636921   1.000000
     22         -3.484212   1.000000
     23         -3.448132   1.000000
     24         -3.309732   1.000000
     25         -1.923773   0.000000
     26         -1.902817   0.000000
     27         -1.719594   0.000000
     28         -1.695908   0.000000
     29         -1.353716   0.000000
     30         -1.022712   0.000000
     31          0.857451   0.000000
     32          1.059311   0.000000
     33          1.173646   0.000000
     34          1.467734   0.000000
     35          1.794034   0.000000
     36          2.015649   0.000000
     37          2.574031   0.000000
     38          2.661840   0.000000
     39          2.708109   0.000000
     40          2.753130   0.000000
 
  0.8860759E-01  0.0000000E+00  0.0000000E+00  0.4166667E-02
      1        -52.521458   1.000000
      2        -52.521457   1.000000
      3        -30.564667   1.000000
      4        -30.564481   1.000000
      5        -30.471534   1.000000
      6        -30.471522   1.000000
      7        -30.459932   1.000000
      8        -30.459913   1.000000
      9        -16.183086   1.000000
     10        -15.952837   1.000000
     11        -15.336892   1.000000
     12        -15.094651   1.000000
     13         -7.521290   1.000000
     14         -6.830686   1.000000
     15         -5.925559   1.000000
     16         -5.774151   1.000000
     17         -5.604400   1.000000
     18         -5.555316   1.000000
     19         -4.446467   1.000000
     20         -3.884920   1.000000
     21         -3.706561   1.000000
     22         -3.483581   1.000000
     23         -3.479719   1.000000
     24         -3.340242   1.000000
     25         -1.924629   0.000000
     26         -1.905427   0.000000
     27         -1.684384   0.000000
     28         -1.662147   0.000000
     29         -1.332459   0.000000
     30         -0.995029   0.000000
     31          0.825408   0.000000
     32          1.012369   0.000000
     33          1.166067   0.000000
     34          1.462498   0.000000
     35          1.833007   0.000000
     36          2.042373   0.000000
     37          2.591037   0.000000
     38          2.690937   0.000000
     39          2.733265   0.000000
     40          2.807331   0.000000
 
  0.9493671E-01  0.0000000E+00  0.0000000E+00  0.4166667E-02
      1        -52.521316   1.000000
      2        -52.521315   1.000000
      3        -30.564171   1.000000
      4        -30.563987   1.000000
      5        -30.473658   1.000000
      6        -30.473636   1.000000
      7        -30.460387   1.000000
      8        -30.460369   1.000000
      9        -16.172938   1.000000
     10        -15.942910   1.000000
     11        -15.335342   1.000000
     12        -15.094900   1.000000
     13         -7.507327   1.000000
     14         -6.819914   1.000000
     15         -5.958733   1.000000
     16         -5.791255   1.000000
     17         -5.599959   1.000000
     18         -5.549559   1.000000
     19         -4.415621   1.000000
     20         -3.955064   1.000000
     21         -3.777729   1.000000
     22         -3.511775   1.000000
     23         -3.481337   1.000000
     24         -3.371229   1.000000
     25         -1.926991   0.000000
     26         -1.909680   0.000000
     27         -1.648414   0.000000
     28         -1.627842   0.000000
     29         -1.310508   0.000000
     30         -0.967051   0.000000
     31          0.795457   0.000000
     32          0.966059   0.000000
     33          1.158447   0.000000
     34          1.457175   0.000000
     35          1.873262   0.000000
     36          2.070379   0.000000
     37          2.609026   0.000000
     38          2.714002   0.000000
     39          2.759924   0.000000
     40          2.865461   0.000000
 
  0.1012658E+00  0.0000000E+00  0.0000000E+00  0.4166667E-02
      1        -52.521167   1.000000
      2        -52.521166   1.000000
      3        -30.563649   1.000000
      4        -30.563467   1.000000
      5        -30.475908   1.000000
      6        -30.475881   1.000000
      7        -30.460876   1.000000
      8        -30.460854   1.000000
      9        -16.162155   1.000000
     10        -15.932367   1.000000
     11        -15.333687   1.000000
     12        -15.095161   1.000000
     13         -7.492532   1.000000
     14         -6.808607   1.000000
     15         -5.991785   1.000000
     16         -5.808726   1.000000
     17         -5.595329   1.000000
     18         -5.543539   1.000000
     19         -4.386188   1.000000
     20         -4.027655   1.000000
     21         -3.849569   1.000000
     22         -3.544139   1.000000
     23         -3.478521   1.000000
     24         -3.402536   1.000000
     25         -1.930792   0.000000
     26         -1.915462   0.000000
     27         -1.611891   0.000000
     28         -1.593145   0.000000
     29         -1.288033   0.000000
     30         -0.939048   0.000000
     31          0.767820   0.000000
     32          0.920690   0.000000
     33          1.150869   0.000000
     34          1.451816   0.000000
     35          1.914553   0.000000
     36          2.099566   0.000000
     37          2.628033   0.000000
     38          2.735468   0.000000
     39          2.787804   0.000000
     40          2.921585   0.000000
 
  0.1075949E+00  0.0000000E+00  0.0000000E+00  0.4166667E-02
      1        -52.521008   1.000000
      2        -52.521007   1.000000
      3        -30.563093   1.000000
      4        -30.562907   1.000000
      5        -30.478277   1.000000
      6        -30.478251   1.000000
      7        -30.461386   1.000000
      8        -30.461364   1.000000
      9        -16.150747   1.000000
     10        -15.921223   1.000000
     11        -15.331926   1.000000
     12        -15.095434   1.000000
     13         -7.476936   1.000000
     14         -6.796816   1.000000
     15         -6.024579   1.000000
     16         -5.826457   1.000000
     17         -5.590531   1.000000
     18         -5.537280   1.000000
     19         -4.359010   1.000000
     20         -4.102068   1.000000
     21         -3.921088   1.000000
     22         -3.576664   1.000000
     23         -3.475740   1.000000
     24         -3.434015   1.000000
     25         -1.935947   0.000000
     26         -1.922648   0.000000
     27         -1.575004   0.000000
     28         -1.558179   0.000000
     29         -1.265178   0.000000
     30         -0.911259   0.000000
     31          0.742658   0.000000
     32          0.876606   0.000000
     33          1.143418   0.000000
     34          1.446489   0.000000
     35          1.956654   0.000000
     36          2.129840   0.000000
     37          2.648070   0.000000
     38          2.756912   0.000000
     39          2.816765   0.000000
     40          2.977624   0.000000
 
  0.1139241E+00  0.0000000E+00  0.0000000E+00  0.4166667E-02
      1        -52.520842   1.000000
      2        -52.520841   1.000000
      3        -30.562509   1.000000
      4        -30.562330   1.000000
      5        -30.480761   1.000000
      6        -30.480735   1.000000
      7        -30.461926   1.000000
      8        -30.461894   1.000000
      9        -16.138733   1.000000
     10        -15.909491   1.000000
     11        -15.330060   1.000000
     12        -15.095716   1.000000
     13         -7.460572   1.000000
     14         -6.784589   1.000000
     15         -6.056990   1.000000
     16         -5.844327   1.000000
     17         -5.585589   1.000000
     18         -5.530807   1.000000
     19         -4.335611   1.000000
     20         -4.177858   1.000000
     21         -3.990678   1.000000
     22         -3.609220   1.000000
     23         -3.473408   1.000000
     24         -3.465537   1.000000
     25         -1.942378   0.000000
     26         -1.931122   0.000000
     27         -1.537945   0.000000
     28         -1.523045   0.000000
     29         -1.242064   0.000000
     30         -0.883889   0.000000
     31          0.720011   0.000000
     32          0.834201   0.000000
     33          1.136170   0.000000
     34          1.441255   0.000000
     35          1.999353   0.000000
     36          2.161108   0.000000
     37          2.669143   0.000000
     38          2.778924   0.000000
     39          2.846799   0.000000
     40          3.027884   0.000000
 
  0.1202532E+00  0.0000000E+00  0.0000000E+00  0.4166667E-02
      1        -52.520668   1.000000
      2        -52.520667   1.000000
      3        -30.561909   1.000000
      4        -30.561726   1.000000
      5        -30.483359   1.000000
      6        -30.483335   1.000000
      7        -30.462493   1.000000
      8        -30.462462   1.000000
      9        -16.126125   1.000000
     10        -15.897191   1.000000
     11        -15.328088   1.000000