 vasp.6.4.3 19Mar24 (build Jul 05 2024 11:40:12) complex                        
  
 executed on             LinuxIFC date 2026.03.12  14:01:50
 running   16 mpi-ranks, on    1 nodes
 distrk:  each k-point on   16 cores,    1 groups
 distr:  one band on NCORE=   4 cores,    4 groups


--------------------------------------------------------------------------------------------------------


 INCAR:
   SYSTEM = ZrSe2-Bilayer_AA_-
   NCORE = 4
   PREC = Accurate
   ISTART = 1            (Read existing wavefunction, if there)
   ENCUT = 400
   EDIFF = 1E-8
   IBRION = -1
   ISMEAR = -5
   SIGMA = 0.05
   LREAL = .FALSE.
   NELM = 60
   ALGO = Normal
   NSW = 0
   LWAVE = .FALSE.
   LCHARG = .FALSE.
   LORBIT = 11
   ICHARG = 11
   NEDOS = 3000
   IVDW = 12
   NBANDS = 40

 POTCAR:    PAW_PBE Zr_sv 04Jan2005               
 POTCAR:    PAW_PBE Se 06Sep2000                  
 POTCAR:    PAW_PBE Zr_sv 04Jan2005               
   SHA256 =  25aed69cb10325f9d37c5c68912b61a17387d1f8e4f1d804860ffa10c8a4bf76 Zr_sv/POTCAR          
   COPYR  = (c) Copyright 04Jan2005 Georg Kresse                                                    
   COPYR  = This file is part of the software VASP. Any use, copying, and all other rights are regul
   COPYR  = If you do not have a valid VASP license, you may not use, copy or distribute this file. 
   VRHFIN =Zr: 4s4p5s4d                                                                             
   LEXCH  = PE                                                                                      
   EATOM  =  1284.2219 eV,   94.3876 Ry                                                             
                                                                                                    
   TITEL  = PAW_PBE Zr_sv 04Jan2005                                                                 
   LULTRA =        F    use ultrasoft PP ?                                                          
   IUNSCR =        1    unscreen: 0-lin 1-nonlin 2-no                                               
   RPACOR =    2.200    partial core radius                                                         
   POMASS =   91.224; ZVAL   =   12.000    mass and valenz                                          
   RCORE  =    2.500    outmost cutoff radius                                                       
   RWIGS  =    3.070; RWIGS  =    1.625    wigner-seitz radius (au A)                               
   ENMAX  =  229.898; ENMIN  =  172.424 eV                                                          
   ICORE  =        3    local potential                                                             
   LCOR   =        T    correct aug charges                                                         
   LPAW   =        T    paw PP                                                                      
   EAUG   =  461.257                                                                                
   DEXC   =    0.000                                                                                
   RMAX   =    2.561    core radius for proj-oper                                                   
   RAUG   =    1.300    factor for augmentation sphere                                              
   RDEP   =    2.597    radius for radial grids                                                     
   RDEPT  =    2.007    core radius for aug-charge                                                  
                                                                                                    
   Atomic configuration                                                                             
   11 entries                                                                                       
     n  l   j            E        occ.                                                              
     1  0  0.50    -17820.0161   2.0000                                                             
     2  0  0.50     -2467.0882   2.0000                                                             
     2  1  1.50     -2199.6095   6.0000                                                             
     3  0  0.50      -402.4863   2.0000                                                             
     3  1  1.50      -315.3675   6.0000                                                             
     3  2  2.50      -172.4472  10.0000                                                             
     4  0  0.50       -52.4146   2.0000                                                             
     5  0  0.50        -3.8421   1.0000                                                             
     4  1  1.50       -30.5054   6.0000                                                             
     4  2  2.50        -2.3341   3.0000                                                             
     4  3  2.50        -1.3606   0.0000                                                             
   Description                                                                                      
     l       E           TYP  RCUT    TYP  RCUT                                                     
     0    -52.4145962     23  2.200                                                                 
     0     -3.8421270     23  2.500                                                                 
     1    -30.5053914     23  2.200                                                                 
     1     20.4087390     23  2.200                                                                 
     2     -2.3340816     23  2.500                                                                 
     2     -0.6120942     23  2.500                                                                 
     3     -4.0817478     23  2.500                                                                 
  local pseudopotential read in
  partial core-charges read in
  partial kinetic energy density read in
  atomic valenz-charges read in
  non local Contribution for L=           0  read in
    real space projection operators read in
  non local Contribution for L=           0  read in
    real space projection operators read in
  non local Contribution for L=           1  read in
    real space projection operators read in
  non local Contribution for L=           1  read in
    real space projection operators read in
  non local Contribution for L=           2  read in
    real space projection operators read in
  non local Contribution for L=           2  read in
    real space projection operators read in
    PAW grid and wavefunctions read in
 
   number of l-projection  operators is LMAX  =           6
   number of lm-projection operators is LMMAX =          18
 
 POTCAR:    PAW_PBE Se 06Sep2000                  
   SHA256 =  eabb916e6b4c819dc065ce039373bc328651da483898f08fb9e49c498452bf12 Se/POTCAR             
   COPYR  = (c) Copyright 06Sep2000 Georg Kresse                                                    
   COPYR  = This file is part of the software VASP. Any use, copying, and all other rights are regul
   COPYR  = If you do not have a valid VASP license, you may not use, copy or distribute this file. 
   VRHFIN =Se: s2p4                                                                                 
   LEXCH  = PE                                                                                      
   EATOM  =   257.1286 eV,   18.8984 Ry                                                             
                                                                                                    
   TITEL  = PAW_PBE Se 06Sep2000                                                                    
   LULTRA =        F    use ultrasoft PP ?                                                          
   IUNSCR =        1    unscreen: 0-lin 1-nonlin 2-no                                               
   RPACOR =    1.900    partial core radius                                                         
   POMASS =   78.960; ZVAL   =    6.000    mass and valenz                                          
   RCORE  =    2.100    outmost cutoff radius                                                       
   RWIGS  =    2.200; RWIGS  =    1.164    wigner-seitz radius (au A)                               
   ENMAX  =  211.555; ENMIN  =  158.666 eV                                                          
   ICORE  =        3    local potential                                                             
   LCOR   =        T    correct aug charges                                                         
   LPAW   =        T    paw PP                                                                      
   EAUG   =  446.842                                                                                
   DEXC   =    0.000                                                                                
   RMAX   =    2.147    core radius for proj-oper                                                   
   RAUG   =    1.300    factor for augmentation sphere                                              
   RDEP   =    2.177    radius for radial grids                                                     
   RDEPT  =    1.928    core radius for aug-charge                                                  
                                                                                                    
   Atomic configuration                                                                             
   10 entries                                                                                       
     n  l   j            E        occ.                                                              
     1  0  0.50    -12503.4787   2.0000                                                             
     2  0  0.50     -1606.9547   2.0000                                                             
     2  1  1.50     -1413.3140   6.0000                                                             
     3  0  0.50      -213.4885   2.0000                                                             
     3  1  1.50      -152.9538   6.0000                                                             
     3  2  2.50       -53.1221  10.0000                                                             
     4  0  0.50       -17.2865   2.0000                                                             
     4  1  0.50        -6.5110   4.0000                                                             
     4  2  2.50        -6.8029   0.0000                                                             
     4  3  2.50        -6.8029   0.0000                                                             
   Description                                                                                      
     l       E           TYP  RCUT    TYP  RCUT                                                     
     0    -17.2865377     23  2.100                                                                 
     0    -15.3094411     23  2.100                                                                 
     1     -6.5110275     23  2.100                                                                 
     1     -0.0695192     23  2.100                                                                 
     2     -6.8029130     23  2.100                                                                 
     3     -1.3605826      7  2.100                                                                 
  local pseudopotential read in
  partial core-charges read in
  partial kinetic energy density read in
  atomic valenz-charges read in
  non local Contribution for L=           0  read in
    real space projection operators read in
  non local Contribution for L=           0  read in
    real space projection operators read in
  non local Contribution for L=           1  read in
    real space projection operators read in
  non local Contribution for L=           1  read in
    real space projection operators read in
  non local Contribution for L=           2  read in
    real space projection operators read in
    PAW grid and wavefunctions read in
 
   number of l-projection  operators is LMAX  =           5
   number of lm-projection operators is LMMAX =          13
 
  PAW_PBE Zr_sv 04Jan2005               :
 energy of atom  1       EATOM=-1284.2219
 kinetic energy error for atom=    0.0075 (will be added to EATOM!!)
  PAW_PBE Se 06Sep2000                  :
 energy of atom  2       EATOM= -257.1286
 kinetic energy error for atom=    0.0020 (will be added to EATOM!!)
 
 
 POSCAR: 1T-ZrSe2 bilayer with AA1 stacking (cent
  positions in direct lattice
  velocities in cartesian coordinates
 IVDW         = 12
 VDW_S6       =    1.0000
 VDW_S8       =    0.7875
 VDW_A1       =    0.4289
 VDW_A2       =    4.4407
 VDW_RADIUS   =   50.2022 A
 VDW_CNRADIUS =   21.1671 A


 exchange-correlation table for PE
   RHO(1)=    0.500       N(1)  =     2000
   RHO(2)=  100.500       N(2)  =     4000
 


--------------------------------------------------------------------------------------------------------


 ion  position               nearest neighbor table
   1  0.000  0.000  0.439-   4 2.69   4 2.69   4 2.69   3 2.69   3 2.69   3 2.69
   2  0.000  0.000  0.561-   5 2.69   5 2.69   5 2.69   6 2.69   6 2.69   6 2.69
   3  0.667  0.333  0.407-   1 2.69   1 2.69   1 2.69
   4  0.333  0.667  0.471-   1 2.69   1 2.69   1 2.69
   5  0.667  0.333  0.529-   2 2.69   2 2.69   2 2.69
   6  0.333  0.667  0.593-   2 2.69   2 2.69   2 2.69
 
  LATTYP: Found a hexagonal cell.
 ALAT       =     3.7699999809
 C/A-ratio  =    13.1374005647
  
  Lattice vectors:
  
 A1 = (   3.7699999809,   0.0000000000,   0.0000000000)
 A2 = (  -1.8849999905,   3.2649157557,   0.0000000000)
 A3 = (   0.0000000000,   0.0000000000,  49.5279998779)


Analysis of symmetry for initial positions (statically):
=====================================================================
 Subroutine PRICEL returns:
 Original cell was already a primitive cell.
 

 Routine SETGRP: Setting up the symmetry group for a 
 hexagonal supercell.


 Subroutine GETGRP returns: Found 12 space group operations
 (whereof 12 operations were pure point group operations)
 out of a pool of 24 trial point group operations.


The static configuration has the point symmetry D_3d.


Analysis of symmetry for dynamics (positions and initial velocities):
=====================================================================
 Subroutine PRICEL returns:
 Original cell was already a primitive cell.
 

 Routine SETGRP: Setting up the symmetry group for a 
 hexagonal supercell.


 Subroutine GETGRP returns: Found 12 space group operations
 (whereof 12 operations were pure point group operations)
 out of a pool of 24 trial point group operations.


The dynamic configuration has the point symmetry D_3d.


 Subroutine INISYM returns: Found 12 space group operations
 (whereof 12 operations are pure point group operations),
 and found     1 'primitive' translations


----------------------------------------------------------------------------------------

                                     Primitive cell                                     

  volume of cell :     609.6269

  direct lattice vectors                    reciprocal lattice vectors
     3.769999981  0.000000000  0.000000000     0.265251991  0.153143308  0.000000000
    -1.884999990  3.264915756  0.000000000     0.000000000  0.306286617  0.000000000
     0.000000000  0.000000000 49.527999878     0.000000000  0.000000000  0.020190599

  length of vectors
     3.769999981  3.769999981 49.527999878     0.306286617  0.306286617  0.020190599

  position of ions in fractional coordinates (direct lattice)
     0.000000000  0.000000000  0.439026310
     0.000000000  0.000000000  0.560973690
     0.666666687  0.333333343  0.406945066
     0.333333343  0.666666687  0.471038752
     0.666666687  0.333333343  0.528961248
     0.333333343  0.666666687  0.593054934

  ion indices of the primitive-cell ions
   primitive index   ion index
                 1           1
                 2           2
                 3           3
                 4           4
                 5           5
                 6           6

----------------------------------------------------------------------------------------

 
 
 KPOINTS: K-Path Generated by VASPKIT.            

Interpolating k-points between supplied coordinates.
 -----------------------------------------------------------------------------
|                                                                             |
|           W    W    AA    RRRRR   N    N  II  N    N   GGGG   !!!           |
|           W    W   A  A   R    R  NN   N  II  NN   N  G    G  !!!           |
|           W    W  A    A  R    R  N N  N  II  N N  N  G       !!!           |
|           W WW W  AAAAAA  RRRRR   N  N N  II  N  N N  G  GGG   !            |
|           WW  WW  A    A  R   R   N   NN  II  N   NN  G    G                |
|           W    W  A    A  R    R  N    N  II  N    N   GGGG   !!!           |
|                                                                             |
|     Changing the smearing to ISMEAR=1 (the default) for those parts of      |
|     this job that use k-points specified in line-mode.                      |
|                                                                             |
 -----------------------------------------------------------------------------


 Line segments in fractional coordinates (reciprocal lattice):
    0.000000  0.000000  0.000000  ...  0.500000  0.000000  0.000000
    0.500000  0.000000  0.000000  ...  0.333333  0.333333  0.000000
    0.333333  0.333333  0.000000  ...  0.000000  0.000000  0.000000

 Generated    80 points on each line segment, for a total of    240 k-points:

 Following reciprocal coordinates:
            Coordinates               Weight
  0.000000  0.000000  0.000000      0.004167
  0.006329  0.000000  0.000000      0.004167
  0.012658  0.000000  0.000000      0.004167
  0.018987  0.000000  0.000000      0.004167
  0.025316  0.000000  0.000000      0.004167
  0.031646  0.000000  0.000000      0.004167
  0.037975  0.000000  0.000000      0.004167
  0.044304  0.000000  0.000000      0.004167
  0.050633  0.000000  0.000000      0.004167
  0.056962  0.000000  0.000000      0.004167
  0.063291  0.000000  0.000000      0.004167
  0.069620  0.000000  0.000000      0.004167
  0.075949  0.000000  0.000000      0.004167
  0.082278  0.000000  0.000000      0.004167
  0.088608  0.000000  0.000000      0.004167
  0.094937  0.000000  0.000000      0.004167
  0.101266  0.000000  0.000000      0.004167
  0.107595  0.000000  0.000000      0.004167
  0.113924  0.000000  0.000000      0.004167
  0.120253  0.000000  0.000000      0.004167
  0.126582  0.000000  0.000000      0.004167
  0.132911  0.000000  0.000000      0.004167
  0.139241  0.000000  0.000000      0.004167
  0.145570  0.000000  0.000000      0.004167
  0.151899  0.000000  0.000000      0.004167
  0.158228  0.000000  0.000000      0.004167
  0.164557  0.000000  0.000000      0.004167
  0.170886  0.000000  0.000000      0.004167
  0.177215  0.000000  0.000000      0.004167
  0.183544  0.000000  0.000000      0.004167
  0.189873  0.000000  0.000000      0.004167
  0.196203  0.000000  0.000000      0.004167
  0.202532  0.000000  0.000000      0.004167
  0.208861  0.000000  0.000000      0.004167
  0.215190  0.000000  0.000000      0.004167
  0.221519  0.000000  0.000000      0.004167
  0.227848  0.000000  0.000000      0.004167
  0.234177  0.000000  0.000000      0.004167
  0.240506  0.000000  0.000000      0.004167
  0.246835  0.000000  0.000000      0.004167
  0.253165  0.000000  0.000000      0.004167
  0.259494  0.000000  0.000000      0.004167
  0.265823  0.000000  0.000000      0.004167
  0.272152  0.000000  0.000000      0.004167
  0.278481  0.000000  0.000000      0.004167
  0.284810  0.000000  0.000000      0.004167
  0.291139  0.000000  0.000000      0.004167
  0.297468  0.000000  0.000000      0.004167
  0.303797  0.000000  0.000000      0.004167
  0.310127  0.000000  0.000000      0.004167
  0.316456  0.000000  0.000000      0.004167
  0.322785  0.000000  0.000000      0.004167
  0.329114  0.000000  0.000000      0.004167
  0.335443  0.000000  0.000000      0.004167
  0.341772  0.000000  0.000000      0.004167
  0.348101  0.000000  0.000000      0.004167
  0.354430  0.000000  0.000000      0.004167
  0.360759  0.000000  0.000000      0.004167
  0.367089  0.000000  0.000000      0.004167
  0.373418  0.000000  0.000000      0.004167
  0.379747  0.000000  0.000000      0.004167
  0.386076  0.000000  0.000000      0.004167
  0.392405  0.000000  0.000000      0.004167
  0.398734  0.000000  0.000000      0.004167
  0.405063  0.000000  0.000000      0.004167
  0.411392  0.000000  0.000000      0.004167
  0.417722  0.000000  0.000000      0.004167
  0.424051  0.000000  0.000000      0.004167
  0.430380  0.000000  0.000000      0.004167
  0.436709  0.000000  0.000000      0.004167
  0.443038  0.000000  0.000000      0.004167
  0.449367  0.000000  0.000000      0.004167
  0.455696  0.000000  0.000000      0.004167
  0.462025  0.000000  0.000000      0.004167
  0.468354  0.000000  0.000000      0.004167
  0.474684  0.000000  0.000000      0.004167
  0.481013  0.000000  0.000000      0.004167
  0.487342  0.000000  0.000000      0.004167
  0.493671  0.000000  0.000000      0.004167
  0.500000  0.000000  0.000000      0.004167
  0.500000  0.000000  0.000000      0.004167
  0.497890  0.004219  0.000000      0.004167
  0.495781  0.008439  0.000000      0.004167
  0.493671  0.012658  0.000000      0.004167
  0.491561  0.016878  0.000000      0.004167
  0.489451  0.021097  0.000000      0.004167
  0.487342  0.025316  0.000000      0.004167
  0.485232  0.029536  0.000000      0.004167
  0.483122  0.033755  0.000000      0.004167
  0.481013  0.037975  0.000000      0.004167
  0.478903  0.042194  0.000000      0.004167
  0.476793  0.046414  0.000000      0.004167
  0.474684  0.050633  0.000000      0.004167
  0.472574  0.054852  0.000000      0.004167
  0.470464  0.059072  0.000000      0.004167
  0.468354  0.063291  0.000000      0.004167
  0.466245  0.067511  0.000000      0.004167
  0.464135  0.071730  0.000000      0.004167
  0.462025  0.075949  0.000000      0.004167
  0.459916  0.080169  0.000000      0.004167
  0.457806  0.084388  0.000000      0.004167
  0.455696  0.088608  0.000000      0.004167
  0.453586  0.092827  0.000000      0.004167
  0.451477  0.097046  0.000000      0.004167
  0.449367  0.101266  0.000000      0.004167
  0.447257  0.105485  0.000000      0.004167
  0.445148  0.109705  0.000000      0.004167
  0.443038  0.113924  0.000000      0.004167
  0.440928  0.118143  0.000000      0.004167
  0.438819  0.122363  0.000000      0.004167
  0.436709  0.126582  0.000000      0.004167
  0.434599  0.130802  0.000000      0.004167
  0.432489  0.135021  0.000000      0.004167
  0.430380  0.139241  0.000000      0.004167
  0.428270  0.143460  0.000000      0.004167
  0.426160  0.147679  0.000000      0.004167
  0.424051  0.151899  0.000000      0.004167
  0.421941  0.156118  0.000000      0.004167
  0.419831  0.160338  0.000000      0.004167
  0.417722  0.164557  0.000000      0.004167
  0.415612  0.168776  0.000000      0.004167
  0.413502  0.172996  0.000000      0.004167
  0.411392  0.177215  0.000000      0.004167
  0.409283  0.181435  0.000000      0.004167
  0.407173  0.185654  0.000000      0.004167
  0.405063  0.189873  0.000000      0.004167
  0.402954  0.194093  0.000000      0.004167
  0.400844  0.198312  0.000000      0.004167
  0.398734  0.202532  0.000000      0.004167
  0.396624  0.206751  0.000000      0.004167
  0.394515  0.210970  0.000000      0.004167
  0.392405  0.215190  0.000000      0.004167
  0.390295  0.219409  0.000000      0.004167
  0.388186  0.223629  0.000000      0.004167
  0.386076  0.227848  0.000000      0.004167
  0.383966  0.232068  0.000000      0.004167
  0.381857  0.236287  0.000000      0.004167
  0.379747  0.240506  0.000000      0.004167
  0.377637  0.244726  0.000000      0.004167
  0.375527  0.248945  0.000000      0.004167
  0.373418  0.253165  0.000000      0.004167
  0.371308  0.257384  0.000000      0.004167
  0.369198  0.261603  0.000000      0.004167
  0.367089  0.265823  0.000000      0.004167
  0.364979  0.270042  0.000000      0.004167
  0.362869  0.274262  0.000000      0.004167
  0.360759  0.278481  0.000000      0.004167
  0.358650  0.282700  0.000000      0.004167
  0.356540  0.286920  0.000000      0.004167
  0.354430  0.291139  0.000000      0.004167
  0.352321  0.295359  0.000000      0.004167
  0.350211  0.299578  0.000000      0.004167
  0.348101  0.303797  0.000000      0.004167
  0.345992  0.308017  0.000000      0.004167
  0.343882  0.312236  0.000000      0.004167
  0.341772  0.316456  0.000000      0.004167
  0.339662  0.320675  0.000000      0.004167
  0.337553  0.324895  0.000000      0.004167
  0.335443  0.329114  0.000000      0.004167
  0.333333  0.333333  0.000000      0.004167
  0.333333  0.333333  0.000000      0.004167
  0.329114  0.329114  0.000000      0.004167
  0.324895  0.324895  0.000000      0.004167
  0.320675  0.320675  0.000000      0.004167
  0.316456  0.316456  0.000000      0.004167
  0.312236  0.312236  0.000000      0.004167
  0.308017  0.308017  0.000000      0.004167
  0.303797  0.303797  0.000000      0.004167
  0.299578  0.299578  0.000000      0.004167
  0.295359  0.295359  0.000000      0.004167
  0.291139  0.291139  0.000000      0.004167
  0.286920  0.286920  0.000000      0.004167
  0.282700  0.282700  0.000000      0.004167
  0.278481  0.278481  0.000000      0.004167
  0.274262  0.274262  0.000000      0.004167
  0.270042  0.270042  0.000000      0.004167
  0.265823  0.265823  0.000000      0.004167
  0.261603  0.261603  0.000000      0.004167
  0.257384  0.257384  0.000000      0.004167
  0.253165  0.253165  0.000000      0.004167
  0.248945  0.248945  0.000000      0.004167
  0.244726  0.244726  0.000000      0.004167
  0.240506  0.240506  0.000000      0.004167
  0.236287  0.236287  0.000000      0.004167
  0.232068  0.232068  0.000000      0.004167
  0.227848  0.227848  0.000000      0.004167
  0.223629  0.223629  0.000000      0.004167
  0.219409  0.219409  0.000000      0.004167
  0.215190  0.215190  0.000000      0.004167
  0.210970  0.210970  0.000000      0.004167
  0.206751  0.206751  0.000000      0.004167
  0.202532  0.202532  0.000000      0.004167
  0.198312  0.198312  0.000000      0.004167
  0.194093  0.194093  0.000000      0.004167
  0.189873  0.189873  0.000000      0.004167
  0.185654  0.185654  0.000000      0.004167
  0.181435  0.181435  0.000000      0.004167
  0.177215  0.177215  0.000000      0.004167
  0.172996  0.172996  0.000000      0.004167
  0.168776  0.168776  0.000000      0.004167
  0.164557  0.164557  0.000000      0.004167
  0.160338  0.160338  0.000000      0.004167
  0.156118  0.156118  0.000000      0.004167
  0.151899  0.151899  0.000000      0.004167
  0.147679  0.147679  0.000000      0.004167
  0.143460  0.143460  0.000000      0.004167
  0.139241  0.139241  0.000000      0.004167
  0.135021  0.135021  0.000000      0.004167
  0.130802  0.130802  0.000000      0.004167
  0.126582  0.126582  0.000000      0.004167
  0.122363  0.122363  0.000000      0.004167
  0.118143  0.118143  0.000000      0.004167
  0.113924  0.113924  0.000000      0.004167
  0.109705  0.109705  0.000000      0.004167
  0.105485  0.105485  0.000000      0.004167
  0.101266  0.101266  0.000000      0.004167
  0.097046  0.097046  0.000000      0.004167
  0.092827  0.092827  0.000000      0.004167
  0.088608  0.088608  0.000000      0.004167
  0.084388  0.084388  0.000000      0.004167
  0.080169  0.080169  0.000000      0.004167
  0.075949  0.075949  0.000000      0.004167
  0.071730  0.071730  0.000000      0.004167
  0.067511  0.067511  0.000000      0.004167
  0.063291  0.063291  0.000000      0.004167
  0.059072  0.059072  0.000000      0.004167
  0.054852  0.054852  0.000000      0.004167
  0.050633  0.050633  0.000000      0.004167
  0.046414  0.046414  0.000000      0.004167
  0.042194  0.042194  0.000000      0.004167
  0.037975  0.037975  0.000000      0.004167
  0.033755  0.033755  0.000000      0.004167
  0.029536  0.029536  0.000000      0.004167
  0.025316  0.025316  0.000000      0.004167
  0.021097  0.021097  0.000000      0.004167
  0.016878  0.016878  0.000000      0.004167
  0.012658  0.012658  0.000000      0.004167
  0.008439  0.008439  0.000000      0.004167
  0.004219  0.004219  0.000000      0.004167
  0.000000  0.000000  0.000000      0.004167

 Following cartesian coordinates:
            Coordinates               Weight
  0.000000  0.000000  0.000000      0.004167
  0.001679  0.000969  0.000000      0.004167
  0.003358  0.001939  0.000000      0.004167
  0.005036  0.002908  0.000000      0.004167
  0.006715  0.003877  0.000000      0.004167
  0.008394  0.004846  0.000000      0.004167
  0.010073  0.005816  0.000000      0.004167
  0.011752  0.006785  0.000000      0.004167
  0.013430  0.007754  0.000000      0.004167
  0.015109  0.008723  0.000000      0.004167
  0.016788  0.009693  0.000000      0.004167
  0.018467  0.010662  0.000000      0.004167
  0.020146  0.011631  0.000000      0.004167
  0.021825  0.012600  0.000000      0.004167
  0.023503  0.013570  0.000000      0.004167
  0.025182  0.014539  0.000000      0.004167
  0.026861  0.015508  0.000000      0.004167
  0.028540  0.016477  0.000000      0.004167
  0.030219  0.017447  0.000000      0.004167
  0.031897  0.018416  0.000000      0.004167
  0.033576  0.019385  0.000000      0.004167
  0.035255  0.020354  0.000000      0.004167
  0.036934  0.021324  0.000000      0.004167
  0.038613  0.022293  0.000000      0.004167
  0.040291  0.023262  0.000000      0.004167
  0.041970  0.024232  0.000000      0.004167
  0.043649  0.025201  0.000000      0.004167
  0.045328  0.026170  0.000000      0.004167
  0.047007  0.027139  0.000000      0.004167
  0.048685  0.028109  0.000000      0.004167
  0.050364  0.029078  0.000000      0.004167
  0.052043  0.030047  0.000000      0.004167
  0.053722  0.031016  0.000000      0.004167
  0.055401  0.031986  0.000000      0.004167
  0.057080  0.032955  0.000000      0.004167
  0.058758  0.033924  0.000000      0.004167
  0.060437  0.034893  0.000000      0.004167
  0.062116  0.035863  0.000000      0.004167
  0.063795  0.036832  0.000000      0.004167
  0.065474  0.037801  0.000000      0.004167
  0.067152  0.038770  0.000000      0.004167
  0.068831  0.039740  0.000000      0.004167
  0.070510  0.040709  0.000000      0.004167
  0.072189  0.041678  0.000000      0.004167
  0.073868  0.042648  0.000000      0.004167
  0.075546  0.043617  0.000000      0.004167
  0.077225  0.044586  0.000000      0.004167
  0.078904  0.045555  0.000000      0.004167
  0.080583  0.046525  0.000000      0.004167
  0.082262  0.047494  0.000000      0.004167
  0.083941  0.048463  0.000000      0.004167
  0.085619  0.049432  0.000000      0.004167
  0.087298  0.050402  0.000000      0.004167
  0.088977  0.051371  0.000000      0.004167
  0.090656  0.052340  0.000000      0.004167
  0.092335  0.053309  0.000000      0.004167
  0.094013  0.054279  0.000000      0.004167
  0.095692  0.055248  0.000000      0.004167
  0.097371  0.056217  0.000000      0.004167
  0.099050  0.057186  0.000000      0.004167
  0.100729  0.058156  0.000000      0.004167
  0.102407  0.059125  0.000000      0.004167
  0.104086  0.060094  0.000000      0.004167
  0.105765  0.061063  0.000000      0.004167
  0.107444  0.062033  0.000000      0.004167
  0.109123  0.063002  0.000000      0.004167
  0.110801  0.063971  0.000000      0.004167
  0.112480  0.064941  0.000000      0.004167
  0.114159  0.065910  0.000000      0.004167
  0.115838  0.066879  0.000000      0.004167
  0.117517  0.067848  0.000000      0.004167
  0.119196  0.068818  0.000000      0.004167
  0.120874  0.069787  0.000000      0.004167
  0.122553  0.070756  0.000000      0.004167
  0.124232  0.071725  0.000000      0.004167
  0.125911  0.072695  0.000000      0.004167
  0.127590  0.073664  0.000000      0.004167
  0.129268  0.074633  0.000000      0.004167
  0.130947  0.075602  0.000000      0.004167
  0.132626  0.076572  0.000000      0.004167
  0.132626  0.076572  0.000000      0.004167
  0.132066  0.077541  0.000000      0.004167
  0.131507  0.078510  0.000000      0.004167
  0.130947  0.079479  0.000000      0.004167
  0.130388  0.080449  0.000000      0.004167
  0.129828  0.081418  0.000000      0.004167
  0.129268  0.082387  0.000000      0.004167
  0.128709  0.083356  0.000000      0.004167
  0.128149  0.084326  0.000000      0.004167
  0.127590  0.085295  0.000000      0.004167
  0.127030  0.086264  0.000000      0.004167
  0.126470  0.087234  0.000000      0.004167
  0.125911  0.088203  0.000000      0.004167
  0.125351  0.089172  0.000000      0.004167
  0.124792  0.090141  0.000000      0.004167
  0.124232  0.091111  0.000000      0.004167
  0.123672  0.092080  0.000000      0.004167
  0.123113  0.093049  0.000000      0.004167
  0.122553  0.094018  0.000000      0.004167
  0.121994  0.094988  0.000000      0.004167
  0.121434  0.095957  0.000000      0.004167
  0.120874  0.096926  0.000000      0.004167
  0.120315  0.097895  0.000000      0.004167
  0.119755  0.098865  0.000000      0.004167
  0.119196  0.099834  0.000000      0.004167
  0.118636  0.100803  0.000000      0.004167
  0.118076  0.101772  0.000000      0.004167
  0.117517  0.102742  0.000000      0.004167
  0.116957  0.103711  0.000000      0.004167
  0.116397  0.104680  0.000000      0.004167
  0.115838  0.105649  0.000000      0.004167
  0.115278  0.106619  0.000000      0.004167
  0.114719  0.107588  0.000000      0.004167
  0.114159  0.108557  0.000000      0.004167
  0.113599  0.109527  0.000000      0.004167
  0.113040  0.110496  0.000000      0.004167
  0.112480  0.111465  0.000000      0.004167
  0.111921  0.112434  0.000000      0.004167
  0.111361  0.113404  0.000000      0.004167
  0.110801  0.114373  0.000000      0.004167
  0.110242  0.115342  0.000000      0.004167
  0.109682  0.116311  0.000000      0.004167
  0.109123  0.117281  0.000000      0.004167
  0.108563  0.118250  0.000000      0.004167
  0.108003  0.119219  0.000000      0.004167
  0.107444  0.120188  0.000000      0.004167
  0.106884  0.121158  0.000000      0.004167
  0.106325  0.122127  0.000000      0.004167
  0.105765  0.123096  0.000000      0.004167
  0.105205  0.124065  0.000000      0.004167
  0.104646  0.125035  0.000000      0.004167
  0.104086  0.126004  0.000000      0.004167
  0.103527  0.126973  0.000000      0.004167
  0.102967  0.127943  0.000000      0.004167
  0.102407  0.128912  0.000000      0.004167
  0.101848  0.129881  0.000000      0.004167
  0.101288  0.130850  0.000000      0.004167
  0.100729  0.131820  0.000000      0.004167
  0.100169  0.132789  0.000000      0.004167
  0.099609  0.133758  0.000000      0.004167
  0.099050  0.134727  0.000000      0.004167
  0.098490  0.135697  0.000000      0.004167
  0.097931  0.136666  0.000000      0.004167
  0.097371  0.137635  0.000000      0.004167
  0.096811  0.138604  0.000000      0.004167
  0.096252  0.139574  0.000000      0.004167
  0.095692  0.140543  0.000000      0.004167
  0.095133  0.141512  0.000000      0.004167
  0.094573  0.142481  0.000000      0.004167
  0.094013  0.143451  0.000000      0.004167
  0.093454  0.144420  0.000000      0.004167
  0.092894  0.145389  0.000000      0.004167
  0.092335  0.146358  0.000000      0.004167
  0.091775  0.147328  0.000000      0.004167
  0.091215  0.148297  0.000000      0.004167
  0.090656  0.149266  0.000000      0.004167
  0.090096  0.150236  0.000000      0.004167
  0.089537  0.151205  0.000000      0.004167
  0.088977  0.152174  0.000000      0.004167
  0.088417  0.153143  0.000000      0.004167
  0.088417  0.153143  0.000000      0.004167
  0.087298  0.151205  0.000000      0.004167
  0.086179  0.149266  0.000000      0.004167
  0.085060  0.147328  0.000000      0.004167
  0.083941  0.145389  0.000000      0.004167
  0.082821  0.143451  0.000000      0.004167
  0.081702  0.141512  0.000000      0.004167
  0.080583  0.139574  0.000000      0.004167
  0.079464  0.137635  0.000000      0.004167
  0.078344  0.135697  0.000000      0.004167
  0.077225  0.133758  0.000000      0.004167
  0.076106  0.131820  0.000000      0.004167
  0.074987  0.129881  0.000000      0.004167
  0.073868  0.127943  0.000000      0.004167
  0.072748  0.126004  0.000000      0.004167
  0.071629  0.124065  0.000000      0.004167
  0.070510  0.122127  0.000000      0.004167
  0.069391  0.120188  0.000000      0.004167
  0.068272  0.118250  0.000000      0.004167
  0.067152  0.116311  0.000000      0.004167
  0.066033  0.114373  0.000000      0.004167
  0.064914  0.112434  0.000000      0.004167
  0.063795  0.110496  0.000000      0.004167
  0.062676  0.108557  0.000000      0.004167
  0.061556  0.106619  0.000000      0.004167
  0.060437  0.104680  0.000000      0.004167
  0.059318  0.102742  0.000000      0.004167
  0.058199  0.100803  0.000000      0.004167
  0.057080  0.098865  0.000000      0.004167
  0.055960  0.096926  0.000000      0.004167
  0.054841  0.094988  0.000000      0.004167
  0.053722  0.093049  0.000000      0.004167
  0.052603  0.091111  0.000000      0.004167
  0.051484  0.089172  0.000000      0.004167
  0.050364  0.087234  0.000000      0.004167
  0.049245  0.085295  0.000000      0.004167
  0.048126  0.083356  0.000000      0.004167
  0.047007  0.081418  0.000000      0.004167
  0.045887  0.079479  0.000000      0.004167
  0.044768  0.077541  0.000000      0.004167
  0.043649  0.075602  0.000000      0.004167
  0.042530  0.073664  0.000000      0.004167
  0.041411  0.071725  0.000000      0.004167
  0.040291  0.069787  0.000000      0.004167
  0.039172  0.067848  0.000000      0.004167
  0.038053  0.065910  0.000000      0.004167
  0.036934  0.063971  0.000000      0.004167
  0.035815  0.062033  0.000000      0.004167
  0.034695  0.060094  0.000000      0.004167
  0.033576  0.058156  0.000000      0.004167
  0.032457  0.056217  0.000000      0.004167
  0.031338  0.054279  0.000000      0.004167
  0.030219  0.052340  0.000000      0.004167
  0.029099  0.050402  0.000000      0.004167
  0.027980  0.048463  0.000000      0.004167
  0.026861  0.046525  0.000000      0.004167
  0.025742  0.044586  0.000000      0.004167
  0.024623  0.042648  0.000000      0.004167
  0.023503  0.040709  0.000000      0.004167
  0.022384  0.038770  0.000000      0.004167
  0.021265  0.036832  0.000000      0.004167
  0.020146  0.034893  0.000000      0.004167
  0.019027  0.032955  0.000000      0.004167
  0.017907  0.031016  0.000000      0.004167
  0.016788  0.029078  0.000000      0.004167
  0.015669  0.027139  0.000000      0.004167
  0.014550  0.025201  0.000000      0.004167
  0.013430  0.023262  0.000000      0.004167
  0.012311  0.021324  0.000000      0.004167
  0.011192  0.019385  0.000000      0.004167
  0.010073  0.017447  0.000000      0.004167
  0.008954  0.015508  0.000000      0.004167
  0.007834  0.013570  0.000000      0.004167
  0.006715  0.011631  0.000000      0.004167
  0.005596  0.009693  0.000000      0.004167
  0.004477  0.007754  0.000000      0.004167
  0.003358  0.005816  0.000000      0.004167
  0.002238  0.003877  0.000000      0.004167
  0.001119  0.001939  0.000000      0.004167
  0.000000  0.000000  0.000000      0.004167
 


--------------------------------------------------------------------------------------------------------




 Dimension of arrays:
   k-points           NKPTS =    240   k-points in BZ     NKDIM =    240   number of bands    NBANDS=     40
   number of dos      NEDOS =   3000   number of ions     NIONS =      6
   non local maximal  LDIM  =      6   non local SUM 2l+1 LMDIM =     18
   total plane-waves  NPLWV = 254016
   max r-space proj   IRMAX =      1   max aug-charges    IRDMAX=  18369
   dimension x,y,z NGX =    28 NGY =   28 NGZ =  324
   dimension x,y,z NGXF=    56 NGYF=   56 NGZF=  648
   support grid    NGXF=    56 NGYF=   56 NGZF=  648
   ions per type =               2   4
   NGX,Y,Z   is equivalent  to a cutoff of  12.35, 12.35, 10.88 a.u.
   NGXF,Y,Z  is equivalent  to a cutoff of  24.69, 24.69, 21.75 a.u.

 SYSTEM =  ZrSe2-Bilayer_AA_-                      
 POSCAR =  1T-ZrSe2 bilayer with AA1 stacking (cent

 Startparameter for this run:
   NWRITE =      2    write-flag & timer
   PREC   = accura    normal or accurate (medium, high low for compatibility)
   ISTART =      1    job   : 0-new  1-cont  2-samecut
   ICHARG =     11    charge: 1-file 2-atom 10-const
   ISPIN  =      1    spin polarized calculation?
   LNONCOLLINEAR =      F non collinear calculations
   LSORBIT =      F    spin-orbit coupling
   INIWAV =      1    electr: 0-lowe 1-rand  2-diag
   LASPH  =      F    aspherical Exc in radial PAW
 Electronic Relaxation 1
   ENCUT  =  400.0 eV  29.40 Ry    5.42 a.u.   6.15  6.15 80.77*2*pi/ulx,y,z
   ENINI  =  400.0     initial cutoff
   ENAUG  =  461.3 eV  augmentation charge cutoff
   NELM   =     60;   NELMIN=  2; NELMDL=  0     # of ELM steps 
   EDIFF  = 0.1E-07   stopping-criterion for ELM
   LREAL  =      F    real-space projection
   NLSPLINE    = F    spline interpolate recip. space projectors
   LCOMPAT=      F    compatible to vasp.4.4
   GGA_COMPAT  = T    GGA compatible to vasp.4.4-vasp.4.6
   LMAXPAW     = -100 max onsite density
   LMAXMIX     =    2 max onsite mixed and CHGCAR
   VOSKOWN=      0    Vosko Wilk Nusair interpolation
   ROPT   =    0.00000   0.00000
 Ionic relaxation
   EDIFFG = 0.1E-06   stopping-criterion for IOM
   NSW    =      0    number of steps for IOM
   NBLOCK =      1;   KBLOCK =      1    inner block; outer block 
   IBRION =     -1    ionic relax: 0-MD 1-quasi-New 2-CG
   NFREE  =      0    steps in history (QN), initial steepest desc. (CG)
   ISIF   =      2    stress and relaxation
   IWAVPR =     10    prediction:  0-non 1-charg 2-wave 3-comb
   ISYM   =      2    0-nonsym 1-usesym 2-fastsym
   LCORR  =      T    Harris-Foulkes like correction to forces

   POTIM  = 0.5000    time-step for ionic-motion
   TEIN   =    0.0    initial temperature
   TEBEG  =    0.0;   TEEND  =   0.0 temperature during run
   SMASS  =  -3.00    Nose mass-parameter (am)
   estimated Nose-frequenzy (Omega)   =  0.10E-29 period in steps = 0.13E+47 mass=  -0.325E-27a.u.
   SCALEE = 1.0000    scale energy and forces
   NPACO  =    256;   APACO  = 10.0  distance and # of slots for P.C.
   PSTRESS=    0.0 pullay stress

  Mass of Ions in am
   POMASS =  91.22 78.96
  Ionic Valenz
   ZVAL   =  12.00  6.00
  Atomic Wigner-Seitz radii
   RWIGS  =  -1.00 -1.00
  virtual crystal weights 
   VCA    =   1.00  1.00
   NELECT =      48.0000    total number of electrons
   NUPDOWN=      -1.0000    fix difference up-down

 DOS related values:
   EMIN   =  10.00;   EMAX   =-10.00  energy-range for DOS
   EFERMI =   0.00;   METHOD = LEGACY      
   ISMEAR =     1;   SIGMA  =   0.05  broadening in eV -4-tet -1-fermi 0-gaus

 Electronic relaxation 2 (details)
   IALGO  =     38    algorithm
   LDIAG  =      T    sub-space diagonalisation (order eigenvalues)
   LSUBROT=      F    optimize rotation matrix (better conditioning)
   TURBO    =      0    0=normal 1=particle mesh
   IRESTART =      0    0=no restart 2=restart with 2 vectors
   NREBOOT  =      0    no. of reboots
   NMIN     =      0    reboot dimension
   EREF     =   0.00    reference energy to select bands
   IMIX   =      4    mixing-type and parameters
     AMIX     =   0.40;   BMIX     =  1.00
     AMIX_MAG =   1.60;   BMIX_MAG =  1.00
     AMIN     =   0.10
     WC   =   100.;   INIMIX=   1;  MIXPRE=   1;  MAXMIX= -45

 Intra band minimization:
   WEIMIN = 0.0000     energy-eigenvalue tresh-hold
   EBREAK =  0.63E-10  absolut break condition
   DEPER  =   0.30     relativ break condition  

   TIME   =   0.40     timestep for ELM

  volume/ion in A,a.u.               =     101.60       685.66
  Fermi-wavevector in a.u.,A,eV,Ry     =   0.701672  1.325967  6.698733  0.492343
  Thomas-Fermi vector in A             =   1.786162
 
 Write flags
   LWAVE        =      F    write WAVECAR
   LDOWNSAMPLE  =      F    k-point downsampling of WAVECAR
   LCHARG       =      F    write CHGCAR
   LVTOT        =      F    write LOCPOT, total local potential
   LVHAR        =      F    write LOCPOT, Hartree potential only
   WRT_POTENTIAL= false  ! write potential to hdf5 file
   LELF         =      F    write electronic localiz. function (ELF)
   LORBIT       =     11    0 simple, 1 ext, 2 COOP (PROOUT), +10 PAW based schemes


 Dipole corrections
   LMONO      =      F    monopole corrections only (constant potential shift)
   LDIPOL     =      F    correct potential (dipole corrections)
   IDIPOL     =      0    1-x, 2-y, 3-z, 4-all directions 
   EPSILON    =  1.0000000 bulk dielectric constant
   LVACPOTAV  =      F  vacuum potentials using an averaging scheme for the charge density
   VACPOTFLAT =  0.1000000 required flatness to determine vacuum potential
 Exchange correlation treatment:
   GGA     = PE    functional components
   XC_C    = 1    coefficients multiplying the functional components
   LIBXC   =     F    Libxc                    
   VOSKOWN =     0    Vosko Wilk Nusair interpolation
   LHFCALC =     F    Hartree Fock is set to
   LHFONE  =     F    Hartree Fock one center treatment
   AEXX    =    0.0000 exact exchange contribution

 Parameters of functionals:
   PE:
     No parameter
 
 Van der Waals corrections
   IVDW    =    12    specifies the selected vdW correction

 Linear response parameters
   LEPSILON=     F    determine dielectric tensor
   LRPA    =     F    only Hartree local field effects (RPA)
   LNABLA  =     F    use nabla operator in PAW spheres
   LVEL    =     F    velocity operator in full k-point grid
   CSHIFT  =0.1000    complex shift for real part using Kramers Kronig
   OMEGAMAX=  -1.0    maximum frequency
   DEG_THRESHOLD= 0.2000000E-02 threshold for treating states as degnerate
   RTIME   =   -0.100 relaxation time in fs
  (WPLASMAI=    0.000 imaginary part of plasma frequency in eV, 0.658/RTIME)
   DFIELD  = 0.0000000 0.0000000 0.0000000 field for delta impulse in time
 
  Optional k-point grid parameters
   LKPOINTS_OPT  =     F    use optional k-point grid
   KPOINTS_OPT_MODE=     1    mode for optional k-point grid
 
 Orbital magnetization related:
   ORBITALMAG=     F  switch on orbital magnetization
   LCHIMAG   =     F  perturbation theory with respect to B field
   DQ        =  0.001000  dq finite difference perturbation B field
   LLRAUG    =     F  two centre corrections for induced B field
   LBONE     =     F  B-component reconstruction in AE one-centre
   LVGVCALC  =     T  calculate vGv susceptibility
   LVGVAPPL  =     F  apply vGv susceptibility instead of pGv for G=0

 Random number generation:
   RANDOM_GENERATOR = DEFAULT
   PCG_SEED         = not used


--------------------------------------------------------------------------------------------------------


 Static calculation
 charge density and potential remain constant during run
 non-spin polarized calculation
 Variant of blocked Davidson
 Davidson routine will perform the subspace rotation
 perform sub-space diagonalisation
    after iterative eigenvector-optimisation
 no mixing
 using additional bands           16
 reciprocal scheme for non local part
 use partial core corrections
 calculate Harris-corrections to forces 
   (improved forces if not selfconsistent)
 use gradient corrections 
 WARNING: stress and forces are not correct
  (second derivative of E(xc) not defined)
 use of overlap-Matrix (Vanderbilt PP)
 Methfessel and Paxton  Order N= 1 SIGMA  =   0.05


--------------------------------------------------------------------------------------------------------


  energy-cutoff  :      400.00
  volume of cell :      609.63
      direct lattice vectors                 reciprocal lattice vectors
     3.769999981  0.000000000  0.000000000     0.265251991  0.153143308  0.000000000
    -1.884999990  3.264915756  0.000000000     0.000000000  0.306286617  0.000000000
     0.000000000  0.000000000 49.527999878     0.000000000  0.000000000  0.020190599

  length of vectors
     3.769999981  3.769999981 49.527999878     0.306286617  0.306286617  0.020190599


 
 old parameters found on file WAVECAR:
  energy-cutoff  :      400.00
  volume of cell :      609.63
      direct lattice vectors                 reciprocal lattice vectors
     3.769999981  0.000000000  0.000000000     0.265251991  0.153143308  0.000000000
    -1.884999990  3.264915756  0.000000000     0.000000000  0.306286617  0.000000000
     0.000000000  0.000000000 49.527999878     0.000000000  0.000000000  0.020190599

  length of vectors

 
 k-points in units of 2pi/SCALE and weight: K-Path Generated by VASPKIT.            
   0.00000000  0.00000000  0.00000000       0.004
   0.00167881  0.00096926  0.00000000       0.004
   0.00335762  0.00193852  0.00000000       0.004
   0.00503643  0.00290778  0.00000000       0.004
   0.00671524  0.00387705  0.00000000       0.004
   0.00839405  0.00484631  0.00000000       0.004
   0.01007286  0.00581557  0.00000000       0.004
   0.01175167  0.00678483  0.00000000       0.004
   0.01343048  0.00775409  0.00000000       0.004
   0.01510929  0.00872335  0.00000000       0.004
   0.01678810  0.00969261  0.00000000       0.004
   0.01846691  0.01066188  0.00000000       0.004
   0.02014572  0.01163114  0.00000000       0.004
   0.02182453  0.01260040  0.00000000       0.004
   0.02350334  0.01356966  0.00000000       0.004
   0.02518215  0.01453892  0.00000000       0.004
   0.02686096  0.01550818  0.00000000       0.004
   0.02853977  0.01647744  0.00000000       0.004
   0.03021858  0.01744671  0.00000000       0.004
   0.03189739  0.01841597  0.00000000       0.004
   0.03357620  0.01938523  0.00000000       0.004
   0.03525501  0.02035449  0.00000000       0.004
   0.03693382  0.02132375  0.00000000       0.004
   0.03861263  0.02229301  0.00000000       0.004
   0.04029144  0.02326227  0.00000000       0.004
   0.04197025  0.02423154  0.00000000       0.004
   0.04364906  0.02520080  0.00000000       0.004
   0.04532787  0.02617006  0.00000000       0.004
   0.04700668  0.02713932  0.00000000       0.004
   0.04868549  0.02810858  0.00000000       0.004
   0.05036430  0.02907784  0.00000000       0.004
   0.05204311  0.03004710  0.00000000       0.004
   0.05372192  0.03101637  0.00000000       0.004
   0.05540073  0.03198563  0.00000000       0.004
   0.05707954  0.03295489  0.00000000       0.004
   0.05875835  0.03392415  0.00000000       0.004
   0.06043716  0.03489341  0.00000000       0.004
   0.06211597  0.03586267  0.00000000       0.004
   0.06379478  0.03683193  0.00000000       0.004
   0.06547359  0.03780120  0.00000000       0.004
   0.06715240  0.03877046  0.00000000       0.004
   0.06883121  0.03973972  0.00000000       0.004
   0.07051002  0.04070898  0.00000000       0.004
   0.07218883  0.04167824  0.00000000       0.004
   0.07386764  0.04264750  0.00000000       0.004
   0.07554645  0.04361677  0.00000000       0.004
   0.07722526  0.04458603  0.00000000       0.004
   0.07890407  0.04555529  0.00000000       0.004
   0.08058288  0.04652455  0.00000000       0.004
   0.08226169  0.04749381  0.00000000       0.004
   0.08394050  0.04846307  0.00000000       0.004
   0.08561931  0.04943233  0.00000000       0.004
   0.08729812  0.05040160  0.00000000       0.004
   0.08897693  0.05137086  0.00000000       0.004
   0.09065574  0.05234012  0.00000000       0.004
   0.09233455  0.05330938  0.00000000       0.004
   0.09401336  0.05427864  0.00000000       0.004
   0.09569217  0.05524790  0.00000000       0.004
   0.09737098  0.05621716  0.00000000       0.004
   0.09904979  0.05718643  0.00000000       0.004
   0.10072860  0.05815569  0.00000000       0.004
   0.10240741  0.05912495  0.00000000       0.004
   0.10408622  0.06009421  0.00000000       0.004
   0.10576503  0.06106347  0.00000000       0.004
   0.10744384  0.06203273  0.00000000       0.004
   0.10912265  0.06300199  0.00000000       0.004
   0.11080146  0.06397126  0.00000000       0.004
   0.11248027  0.06494052  0.00000000       0.004
   0.11415908  0.06590978  0.00000000       0.004
   0.11583789  0.06687904  0.00000000       0.004
   0.11751670  0.06784830  0.00000000       0.004
   0.11919551  0.06881756  0.00000000       0.004
   0.12087432  0.06978682  0.00000000       0.004
   0.12255313  0.07075609  0.00000000       0.004
   0.12423195  0.07172535  0.00000000       0.004
   0.12591076  0.07269461  0.00000000       0.004
   0.12758957  0.07366387  0.00000000       0.004
   0.12926838  0.07463313  0.00000000       0.004
   0.13094719  0.07560239  0.00000000       0.004
   0.13262600  0.07657165  0.00000000       0.004
   0.13262600  0.07657165  0.00000000       0.004
   0.13206639  0.07754092  0.00000000       0.004
   0.13150679  0.07851018  0.00000000       0.004
   0.13094719  0.07947944  0.00000000       0.004
   0.13038758  0.08044870  0.00000000       0.004
   0.12982798  0.08141796  0.00000000       0.004
   0.12926838  0.08238722  0.00000000       0.004
   0.12870877  0.08335648  0.00000000       0.004
   0.12814917  0.08432575  0.00000000       0.004
   0.12758957  0.08529501  0.00000000       0.004
   0.12702996  0.08626427  0.00000000       0.004
   0.12647036  0.08723353  0.00000000       0.004
   0.12591076  0.08820279  0.00000000       0.004
   0.12535115  0.08917205  0.00000000       0.004
   0.12479155  0.09014131  0.00000000       0.004
   0.12423195  0.09111058  0.00000000       0.004
   0.12367234  0.09207984  0.00000000       0.004
   0.12311274  0.09304910  0.00000000       0.004
   0.12255313  0.09401836  0.00000000       0.004
   0.12199353  0.09498762  0.00000000       0.004
   0.12143393  0.09595688  0.00000000       0.004
   0.12087432  0.09692614  0.00000000       0.004
   0.12031472  0.09789541  0.00000000       0.004
   0.11975512  0.09886467  0.00000000       0.004
   0.11919551  0.09983393  0.00000000       0.004
   0.11863591  0.10080319  0.00000000       0.004
   0.11807631  0.10177245  0.00000000       0.004
   0.11751670  0.10274171  0.00000000       0.004
   0.11695710  0.10371097  0.00000000       0.004
   0.11639750  0.10468024  0.00000000       0.004
   0.11583789  0.10564950  0.00000000       0.004
   0.11527829  0.10661876  0.00000000       0.004
   0.11471869  0.10758802  0.00000000       0.004
   0.11415908  0.10855728  0.00000000       0.004
   0.11359948  0.10952654  0.00000000       0.004
   0.11303988  0.11049580  0.00000000       0.004
   0.11248027  0.11146507  0.00000000       0.004
   0.11192067  0.11243433  0.00000000       0.004
   0.11136107  0.11340359  0.00000000       0.004
   0.11080146  0.11437285  0.00000000       0.004
   0.11024186  0.11534211  0.00000000       0.004
   0.10968226  0.11631137  0.00000000       0.004
   0.10912265  0.11728063  0.00000000       0.004
   0.10856305  0.11824990  0.00000000       0.004
   0.10800345  0.11921916  0.00000000       0.004
   0.10744384  0.12018842  0.00000000       0.004
   0.10688424  0.12115768  0.00000000       0.004
   0.10632464  0.12212694  0.00000000       0.004
   0.10576503  0.12309620  0.00000000       0.004
   0.10520543  0.12406546  0.00000000       0.004
   0.10464583  0.12503473  0.00000000       0.004
   0.10408622  0.12600399  0.00000000       0.004
   0.10352662  0.12697325  0.00000000       0.004
   0.10296702  0.12794251  0.00000000       0.004
   0.10240741  0.12891177  0.00000000       0.004
   0.10184781  0.12988103  0.00000000       0.004
   0.10128821  0.13085030  0.00000000       0.004
   0.10072860  0.13181956  0.00000000       0.004
   0.10016900  0.13278882  0.00000000       0.004
   0.09960940  0.13375808  0.00000000       0.004
   0.09904979  0.13472734  0.00000000       0.004
   0.09849019  0.13569660  0.00000000       0.004
   0.09793059  0.13666586  0.00000000       0.004
   0.09737098  0.13763513  0.00000000       0.004
   0.09681138  0.13860439  0.00000000       0.004
   0.09625178  0.13957365  0.00000000       0.004
   0.09569217  0.14054291  0.00000000       0.004
   0.09513257  0.14151217  0.00000000       0.004
   0.09457297  0.14248143  0.00000000       0.004
   0.09401336  0.14345069  0.00000000       0.004
   0.09345376  0.14441996  0.00000000       0.004
   0.09289416  0.14538922  0.00000000       0.004
   0.09233455  0.14635848  0.00000000       0.004
   0.09177495  0.14732774  0.00000000       0.004
   0.09121535  0.14829700  0.00000000       0.004
   0.09065574  0.14926626  0.00000000       0.004
   0.09009614  0.15023552  0.00000000       0.004
   0.08953654  0.15120479  0.00000000       0.004
   0.08897693  0.15217405  0.00000000       0.004
   0.08841733  0.15314331  0.00000000       0.004
   0.08841733  0.15314331  0.00000000       0.004
   0.08729812  0.15120479  0.00000000       0.004
   0.08617892  0.14926626  0.00000000       0.004
   0.08505971  0.14732774  0.00000000       0.004
   0.08394050  0.14538922  0.00000000       0.004
   0.08282130  0.14345069  0.00000000       0.004
   0.08170209  0.14151217  0.00000000       0.004
   0.08058288  0.13957365  0.00000000       0.004
   0.07946368  0.13763513  0.00000000       0.004
   0.07834447  0.13569660  0.00000000       0.004
   0.07722526  0.13375808  0.00000000       0.004
   0.07610606  0.13181956  0.00000000       0.004
   0.07498685  0.12988103  0.00000000       0.004
   0.07386764  0.12794251  0.00000000       0.004
   0.07274844  0.12600399  0.00000000       0.004
   0.07162923  0.12406546  0.00000000       0.004
   0.07051002  0.12212694  0.00000000       0.004
   0.06939082  0.12018842  0.00000000       0.004
   0.06827161  0.11824990  0.00000000       0.004
   0.06715240  0.11631137  0.00000000       0.004
   0.06603320  0.11437285  0.00000000       0.004
   0.06491399  0.11243433  0.00000000       0.004
   0.06379478  0.11049580  0.00000000       0.004
   0.06267558  0.10855728  0.00000000       0.004
   0.06155637  0.10661876  0.00000000       0.004
   0.06043716  0.10468024  0.00000000       0.004
   0.05931796  0.10274171  0.00000000       0.004
   0.05819875  0.10080319  0.00000000       0.004
   0.05707954  0.09886467  0.00000000       0.004
   0.05596034  0.09692614  0.00000000       0.004
   0.05484113  0.09498762  0.00000000       0.004
   0.05372192  0.09304910  0.00000000       0.004
   0.05260272  0.09111058  0.00000000       0.004
   0.05148351  0.08917205  0.00000000       0.004
   0.05036430  0.08723353  0.00000000       0.004
   0.04924510  0.08529501  0.00000000       0.004
   0.04812589  0.08335648  0.00000000       0.004
   0.04700668  0.08141796  0.00000000       0.004
   0.04588748  0.07947944  0.00000000       0.004
   0.04476827  0.07754092  0.00000000       0.004
   0.04364906  0.07560239  0.00000000       0.004
   0.04252986  0.07366387  0.00000000       0.004
   0.04141065  0.07172535  0.00000000       0.004
   0.04029144  0.06978682  0.00000000       0.004
   0.03917223  0.06784830  0.00000000       0.004
   0.03805303  0.06590978  0.00000000       0.004
   0.03693382  0.06397126  0.00000000       0.004
   0.03581461  0.06203273  0.00000000       0.004
   0.03469541  0.06009421  0.00000000       0.004
   0.03357620  0.05815569  0.00000000       0.004
   0.03245699  0.05621716  0.00000000       0.004
   0.03133779  0.05427864  0.00000000       0.004
   0.03021858  0.05234012  0.00000000       0.004
   0.02909937  0.05040160  0.00000000       0.004
   0.02798017  0.04846307  0.00000000       0.004
   0.02686096  0.04652455  0.00000000       0.004
   0.02574175  0.04458603  0.00000000       0.004
   0.02462255  0.04264750  0.00000000       0.004
   0.02350334  0.04070898  0.00000000       0.004
   0.02238413  0.03877046  0.00000000       0.004
   0.02126493  0.03683193  0.00000000       0.004
   0.02014572  0.03489341  0.00000000       0.004
   0.01902651  0.03295489  0.00000000       0.004
   0.01790731  0.03101637  0.00000000       0.004
   0.01678810  0.02907784  0.00000000       0.004
   0.01566889  0.02713932  0.00000000       0.004
   0.01454969  0.02520080  0.00000000       0.004
   0.01343048  0.02326227  0.00000000       0.004
   0.01231127  0.02132375  0.00000000       0.004
   0.01119207  0.01938523  0.00000000       0.004
   0.01007286  0.01744671  0.00000000       0.004
   0.00895365  0.01550818  0.00000000       0.004
   0.00783445  0.01356966  0.00000000       0.004
   0.00671524  0.01163114  0.00000000       0.004
   0.00559603  0.00969261  0.00000000       0.004
   0.00447683  0.00775409  0.00000000       0.004
   0.00335762  0.00581557  0.00000000       0.004
   0.00223841  0.00387705  0.00000000       0.004
   0.00111921  0.00193852  0.00000000       0.004
   0.00000000  0.00000000  0.00000000       0.004
 
 k-points in reciprocal lattice and weights: K-Path Generated by VASPKIT.            
   0.00000000  0.00000000  0.00000000       0.004
   0.00632911  0.00000000  0.00000000       0.004
   0.01265823  0.00000000  0.00000000       0.004
   0.01898734  0.00000000  0.00000000       0.004
   0.02531646  0.00000000  0.00000000       0.004
   0.03164557  0.00000000  0.00000000       0.004
   0.03797468  0.00000000  0.00000000       0.004
   0.04430380  0.00000000  0.00000000       0.004
   0.05063291  0.00000000  0.00000000       0.004
   0.05696203  0.00000000  0.00000000       0.004
   0.06329114  0.00000000  0.00000000       0.004
   0.06962025  0.00000000  0.00000000       0.004
   0.07594937  0.00000000  0.00000000       0.004
   0.08227848  0.00000000  0.00000000       0.004
   0.08860759  0.00000000  0.00000000       0.004
   0.09493671  0.00000000  0.00000000       0.004
   0.10126582  0.00000000  0.00000000       0.004
   0.10759494  0.00000000  0.00000000       0.004
   0.11392405  0.00000000  0.00000000       0.004
   0.12025316  0.00000000  0.00000000       0.004
   0.12658228  0.00000000  0.00000000       0.004
   0.13291139  0.00000000  0.00000000       0.004
   0.13924051  0.00000000  0.00000000       0.004
   0.14556962  0.00000000  0.00000000       0.004
   0.15189873  0.00000000  0.00000000       0.004
   0.15822785  0.00000000  0.00000000       0.004
   0.16455696  0.00000000  0.00000000       0.004
   0.17088608  0.00000000  0.00000000       0.004
   0.17721519  0.00000000  0.00000000       0.004
   0.18354430  0.00000000  0.00000000       0.004
   0.18987342  0.00000000  0.00000000       0.004
   0.19620253  0.00000000  0.00000000       0.004
   0.20253165  0.00000000  0.00000000       0.004
   0.20886076  0.00000000  0.00000000       0.004
   0.21518987  0.00000000  0.00000000       0.004
   0.22151899  0.00000000  0.00000000       0.004
   0.22784810  0.00000000  0.00000000       0.004
   0.23417722  0.00000000  0.00000000       0.004
   0.24050633  0.00000000  0.00000000       0.004
   0.24683544  0.00000000  0.00000000       0.004
   0.25316456  0.00000000  0.00000000       0.004
   0.25949367  0.00000000  0.00000000       0.004
   0.26582278  0.00000000  0.00000000       0.004
   0.27215190  0.00000000  0.00000000       0.004
   0.27848101  0.00000000  0.00000000       0.004
   0.28481013  0.00000000  0.00000000       0.004
   0.29113924  0.00000000  0.00000000       0.004
   0.29746835  0.00000000  0.00000000       0.004
   0.30379747  0.00000000  0.00000000       0.004
   0.31012658  0.00000000  0.00000000       0.004
   0.31645570  0.00000000  0.00000000       0.004
   0.32278481  0.00000000  0.00000000       0.004
   0.32911392  0.00000000  0.00000000       0.004
   0.33544304  0.00000000  0.00000000       0.004
   0.34177215  0.00000000  0.00000000       0.004
   0.34810127  0.00000000  0.00000000       0.004
   0.35443038  0.00000000  0.00000000       0.004
   0.36075949  0.00000000  0.00000000       0.004
   0.36708861  0.00000000  0.00000000       0.004
   0.37341772  0.00000000  0.00000000       0.004
   0.37974684  0.00000000  0.00000000       0.004
   0.38607595  0.00000000  0.00000000       0.004
   0.39240506  0.00000000  0.00000000       0.004
   0.39873418  0.00000000  0.00000000       0.004
   0.40506329  0.00000000  0.00000000       0.004
   0.41139241  0.00000000  0.00000000       0.004
   0.41772152  0.00000000  0.00000000       0.004
   0.42405063  0.00000000  0.00000000       0.004
   0.43037975  0.00000000  0.00000000       0.004
   0.43670886  0.00000000  0.00000000       0.004
   0.44303797  0.00000000  0.00000000       0.004
   0.44936709  0.00000000  0.00000000       0.004
   0.45569620  0.00000000  0.00000000       0.004
   0.46202532  0.00000000  0.00000000       0.004
   0.46835443  0.00000000  0.00000000       0.004
   0.47468354  0.00000000  0.00000000       0.004
   0.48101266  0.00000000  0.00000000       0.004
   0.48734177  0.00000000  0.00000000       0.004
   0.49367089  0.00000000  0.00000000       0.004
   0.50000000  0.00000000  0.00000000       0.004
   0.50000000  0.00000000  0.00000000       0.004
   0.49789030  0.00421941  0.00000000       0.004
   0.49578059  0.00843882  0.00000000       0.004
   0.49367089  0.01265823  0.00000000       0.004
   0.49156118  0.01687764  0.00000000       0.004
   0.48945148  0.02109705  0.00000000       0.004
   0.48734177  0.02531646  0.00000000       0.004
   0.48523207  0.02953586  0.00000000       0.004
   0.48312236  0.03375527  0.00000000       0.004
   0.48101266  0.03797468  0.00000000       0.004
   0.47890295  0.04219409  0.00000000       0.004
   0.47679325  0.04641350  0.00000000       0.004
   0.47468354  0.05063291  0.00000000       0.004
   0.47257384  0.05485232  0.00000000       0.004
   0.47046414  0.05907173  0.00000000       0.004
   0.46835443  0.06329114  0.00000000       0.004
   0.46624473  0.06751055  0.00000000       0.004
   0.46413502  0.07172996  0.00000000       0.004
   0.46202532  0.07594937  0.00000000       0.004
   0.45991561  0.08016878  0.00000000       0.004
   0.45780591  0.08438819  0.00000000       0.004
   0.45569620  0.08860759  0.00000000       0.004
   0.45358650  0.09282700  0.00000000       0.004
   0.45147679  0.09704641  0.00000000       0.004
   0.44936709  0.10126582  0.00000000       0.004
   0.44725738  0.10548523  0.00000000       0.004
   0.44514768  0.10970464  0.00000000       0.004
   0.44303797  0.11392405  0.00000000       0.004
   0.44092827  0.11814346  0.00000000       0.004
   0.43881857  0.12236287  0.00000000       0.004
   0.43670886  0.12658228  0.00000000       0.004
   0.43459916  0.13080169  0.00000000       0.004
   0.43248945  0.13502110  0.00000000       0.004
   0.43037975  0.13924051  0.00000000       0.004
   0.42827004  0.14345992  0.00000000       0.004
   0.42616034  0.14767932  0.00000000       0.004
   0.42405063  0.15189873  0.00000000       0.004
   0.42194093  0.15611814  0.00000000       0.004
   0.41983122  0.16033755  0.00000000       0.004
   0.41772152  0.16455696  0.00000000       0.004
   0.41561181  0.16877637  0.00000000       0.004
   0.41350211  0.17299578  0.00000000       0.004
   0.41139241  0.17721519  0.00000000       0.004
   0.40928270  0.18143460  0.00000000       0.004
   0.40717300  0.18565401  0.00000000       0.004
   0.40506329  0.18987342  0.00000000       0.004
   0.40295359  0.19409283  0.00000000       0.004
   0.40084388  0.19831224  0.00000000       0.004
   0.39873418  0.20253165  0.00000000       0.004
   0.39662447  0.20675105  0.00000000       0.004
   0.39451477  0.21097046  0.00000000       0.004
   0.39240506  0.21518987  0.00000000       0.004
   0.39029536  0.21940928  0.00000000       0.004
   0.38818565  0.22362869  0.00000000       0.004
   0.38607595  0.22784810  0.00000000       0.004
   0.38396624  0.23206751  0.00000000       0.004
   0.38185654  0.23628692  0.00000000       0.004
   0.37974684  0.24050633  0.00000000       0.004
   0.37763713  0.24472574  0.00000000       0.004
   0.37552743  0.24894515  0.00000000       0.004
   0.37341772  0.25316456  0.00000000       0.004
   0.37130802  0.25738397  0.00000000       0.004
   0.36919831  0.26160338  0.00000000       0.004
   0.36708861  0.26582278  0.00000000       0.004
   0.36497890  0.27004219  0.00000000       0.004
   0.36286920  0.27426160  0.00000000       0.004
   0.36075949  0.27848101  0.00000000       0.004
   0.35864979  0.28270042  0.00000000       0.004
   0.35654008  0.28691983  0.00000000       0.004
   0.35443038  0.29113924  0.00000000       0.004
   0.35232068  0.29535865  0.00000000       0.004
   0.35021097  0.29957806  0.00000000       0.004
   0.34810127  0.30379747  0.00000000       0.004
   0.34599156  0.30801688  0.00000000       0.004
   0.34388186  0.31223629  0.00000000       0.004
   0.34177215  0.31645570  0.00000000       0.004
   0.33966245  0.32067511  0.00000000       0.004
   0.33755274  0.32489451  0.00000000       0.004
   0.33544304  0.32911392  0.00000000       0.004
   0.33333333  0.33333333  0.00000000       0.004
   0.33333333  0.33333333  0.00000000       0.004
   0.32911392  0.32911392  0.00000000       0.004
   0.32489451  0.32489451  0.00000000       0.004
   0.32067511  0.32067511  0.00000000       0.004
   0.31645570  0.31645570  0.00000000       0.004
   0.31223629  0.31223629  0.00000000       0.004
   0.30801688  0.30801688  0.00000000       0.004
   0.30379747  0.30379747  0.00000000       0.004
   0.29957806  0.29957806  0.00000000       0.004
   0.29535865  0.29535865  0.00000000       0.004
   0.29113924  0.29113924  0.00000000       0.004
   0.28691983  0.28691983  0.00000000       0.004
   0.28270042  0.28270042  0.00000000       0.004
   0.27848101  0.27848101  0.00000000       0.004
   0.27426160  0.27426160  0.00000000       0.004
   0.27004219  0.27004219  0.00000000       0.004
   0.26582278  0.26582278  0.00000000       0.004
   0.26160338  0.26160338  0.00000000       0.004
   0.25738397  0.25738397  0.00000000       0.004
   0.25316456  0.25316456  0.00000000       0.004
   0.24894515  0.24894515  0.00000000       0.004
   0.24472574  0.24472574  0.00000000       0.004
   0.24050633  0.24050633  0.00000000       0.004
   0.23628692  0.23628692  0.00000000       0.004
   0.23206751  0.23206751  0.00000000       0.004
   0.22784810  0.22784810  0.00000000       0.004
   0.22362869  0.22362869  0.00000000       0.004
   0.21940928  0.21940928  0.00000000       0.004
   0.21518987  0.21518987  0.00000000       0.004
   0.21097046  0.21097046  0.00000000       0.004
   0.20675105  0.20675105  0.00000000       0.004
   0.20253165  0.20253165  0.00000000       0.004
   0.19831224  0.19831224  0.00000000       0.004
   0.19409283  0.19409283  0.00000000       0.004
   0.18987342  0.18987342  0.00000000       0.004
   0.18565401  0.18565401  0.00000000       0.004
   0.18143460  0.18143460  0.00000000       0.004
   0.17721519  0.17721519  0.00000000       0.004
   0.17299578  0.17299578  0.00000000       0.004
   0.16877637  0.16877637  0.00000000       0.004
   0.16455696  0.16455696  0.00000000       0.004
   0.16033755  0.16033755  0.00000000       0.004
   0.15611814  0.15611814  0.00000000       0.004
   0.15189873  0.15189873  0.00000000       0.004
   0.14767932  0.14767932  0.00000000       0.004
   0.14345992  0.14345992  0.00000000       0.004
   0.13924051  0.13924051  0.00000000       0.004
   0.13502110  0.13502110  0.00000000       0.004
   0.13080169  0.13080169  0.00000000       0.004
   0.12658228  0.12658228  0.00000000       0.004
   0.12236287  0.12236287  0.00000000       0.004
   0.11814346  0.11814346  0.00000000       0.004
   0.11392405  0.11392405  0.00000000       0.004
   0.10970464  0.10970464  0.00000000       0.004
   0.10548523  0.10548523  0.00000000       0.004
   0.10126582  0.10126582  0.00000000       0.004
   0.09704641  0.09704641  0.00000000       0.004
   0.09282700  0.09282700  0.00000000       0.004
   0.08860759  0.08860759  0.00000000       0.004
   0.08438819  0.08438819  0.00000000       0.004
   0.08016878  0.08016878  0.00000000       0.004
   0.07594937  0.07594937  0.00000000       0.004
   0.07172996  0.07172996  0.00000000       0.004
   0.06751055  0.06751055  0.00000000       0.004
   0.06329114  0.06329114  0.00000000       0.004
   0.05907173  0.05907173  0.00000000       0.004
   0.05485232  0.05485232  0.00000000       0.004
   0.05063291  0.05063291  0.00000000       0.004
   0.04641350  0.04641350  0.00000000       0.004
   0.04219409  0.04219409  0.00000000       0.004
   0.03797468  0.03797468  0.00000000       0.004
   0.03375527  0.03375527  0.00000000       0.004
   0.02953586  0.02953586  0.00000000       0.004
   0.02531646  0.02531646  0.00000000       0.004
   0.02109705  0.02109705  0.00000000       0.004
   0.01687764  0.01687764  0.00000000       0.004
   0.01265823  0.01265823  0.00000000       0.004
   0.00843882  0.00843882  0.00000000       0.004
   0.00421941  0.00421941  0.00000000       0.004
   0.00000000  0.00000000  0.00000000       0.004
 
 position of ions in fractional coordinates (direct lattice) 
   0.00000000  0.00000000  0.43902631
   0.00000000  0.00000000  0.56097369
   0.66666669  0.33333334  0.40694507
   0.33333334  0.66666669  0.47103875
   0.66666669  0.33333334  0.52896125
   0.33333334  0.66666669  0.59305493
 
 position of ions in cartesian coordinates  (Angst):
   0.00000000  0.00000000 21.74409503
   0.00000000  0.00000000 27.78390484
   1.88500005  1.08830528 20.15517520
  -0.00000000  2.17661057 23.32960725
   1.88500005  1.08830528 26.19839263
  -0.00000000  2.17661057 29.37282468
 


--------------------------------------------------------------------------------------------------------


 k-point     1 :   0.0000 0.0000 0.0000  plane waves:   11081
 k-point     2 :   0.0063 0.0000 0.0000  plane waves:   11091
 k-point     3 :   0.0127 0.0000 0.0000  plane waves:   11087
 k-point     4 :   0.0190 0.0000 0.0000  plane waves:   11071
 k-point     5 :   0.0253 0.0000 0.0000  plane waves:   11061
 k-point     6 :   0.0316 0.0000 0.0000  plane waves:   11049
 k-point     7 :   0.0380 0.0000 0.0000  plane waves:   11035
 k-point     8 :   0.0443 0.0000 0.0000  plane waves:   11021
 k-point     9 :   0.0506 0.0000 0.0000  plane waves:   11033
 k-point    10 :   0.0570 0.0000 0.0000  plane waves:   11039
 k-point    11 :   0.0633 0.0000 0.0000  plane waves:   11049
 k-point    12 :   0.0696 0.0000 0.0000  plane waves:   11043
 k-point    13 :   0.0759 0.0000 0.0000  plane waves:   11041
 k-point    14 :   0.0823 0.0000 0.0000  plane waves:   11033
 k-point    15 :   0.0886 0.0000 0.0000  plane waves:   11045
 k-point    16 :   0.0949 0.0000 0.0000  plane waves:   11045
 k-point    17 :   0.1013 0.0000 0.0000  plane waves:   11051
 k-point    18 :   0.1076 0.0000 0.0000  plane waves:   11049
 k-point    19 :   0.1139 0.0000 0.0000  plane waves:   11045
 k-point    20 :   0.1203 0.0000 0.0000  plane waves:   11053
 k-point    21 :   0.1266 0.0000 0.0000  plane waves:   11039
 k-point    22 :   0.1329 0.0000 0.0000  plane waves:   11027
 k-point    23 :   0.1392 0.0000 0.0000  plane waves:   11021
 k-point    24 :   0.1456 0.0000 0.0000  plane waves:   11005
 k-point    25 :   0.1519 0.0000 0.0000  plane waves:   11007
 k-point    26 :   0.1582 0.0000 0.0000  plane waves:   11011
 k-point    27 :   0.1646 0.0000 0.0000  plane waves:   11007
 k-point    28 :   0.1709 0.0000 0.0000  plane waves:   11013
 k-point    29 :   0.1772 0.0000 0.0000  plane waves:   11007
 k-point    30 :   0.1835 0.0000 0.0000  plane waves:   11017
 k-point    31 :   0.1899 0.0000 0.0000  plane waves:   11013
 k-point    32 :   0.1962 0.0000 0.0000  plane waves:   11011
 k-point    33 :   0.2025 0.0000 0.0000  plane waves:   11019
 k-point    34 :   0.2089 0.0000 0.0000  plane waves:   11017
 k-point    35 :   0.2152 0.0000 0.0000  plane waves:   11025
 k-point    36 :   0.2215 0.0000 0.0000  plane waves:   11027
 k-point    37 :   0.2278 0.0000 0.0000  plane waves:   11031
 k-point    38 :   0.2342 0.0000 0.0000  plane waves:   11029
 k-point    39 :   0.2405 0.0000 0.0000  plane waves:   11017
 k-point    40 :   0.2468 0.0000 0.0000  plane waves:   11013
 k-point    41 :   0.2532 0.0000 0.0000  plane waves:   11039
 k-point    42 :   0.2595 0.0000 0.0000  plane waves:   11049
 k-point    43 :   0.2658 0.0000 0.0000  plane waves:   11055
 k-point    44 :   0.2722 0.0000 0.0000  plane waves:   11063
 k-point    45 :   0.2785 0.0000 0.0000  plane waves:   11055
 k-point    46 :   0.2848 0.0000 0.0000  plane waves:   11055
 k-point    47 :   0.2911 0.0000 0.0000  plane waves:   11061
 k-point    48 :   0.2975 0.0000 0.0000  plane waves:   11079
 k-point    49 :   0.3038 0.0000 0.0000  plane waves:   11063
 k-point    50 :   0.3101 0.0000 0.0000  plane waves:   11071
 k-point    51 :   0.3165 0.0000 0.0000  plane waves:   11069
 k-point    52 :   0.3228 0.0000 0.0000  plane waves:   11067
 k-point    53 :   0.3291 0.0000 0.0000  plane waves:   11060
 k-point    54 :   0.3354 0.0000 0.0000  plane waves:   11052
 k-point    55 :   0.3418 0.0000 0.0000  plane waves:   11054
 k-point    56 :   0.3481 0.0000 0.0000  plane waves:   11056
 k-point    57 :   0.3544 0.0000 0.0000  plane waves:   11060
 k-point    58 :   0.3608 0.0000 0.0000  plane waves:   11072
 k-point    59 :   0.3671 0.0000 0.0000  plane waves:   11066
 k-point    60 :   0.3734 0.0000 0.0000  plane waves:   11074
 k-point    61 :   0.3797 0.0000 0.0000  plane waves:   11078
 k-point    62 :   0.3861 0.0000 0.0000  plane waves:   11080
 k-point    63 :   0.3924 0.0000 0.0000  plane waves:   11080
 k-point    64 :   0.3987 0.0000 0.0000  plane waves:   11086
 k-point    65 :   0.4051 0.0000 0.0000  plane waves:   11104
 k-point    66 :   0.4114 0.0000 0.0000  plane waves:   11100
 k-point    67 :   0.4177 0.0000 0.0000  plane waves:   11102
 k-point    68 :   0.4241 0.0000 0.0000  plane waves:   11092
 k-point    69 :   0.4304 0.0000 0.0000  plane waves:   11104
 k-point    70 :   0.4367 0.0000 0.0000  plane waves:   11114
 k-point    71 :   0.4430 0.0000 0.0000  plane waves:   11114
 k-point    72 :   0.4494 0.0000 0.0000  plane waves:   11106
 k-point    73 :   0.4557 0.0000 0.0000  plane waves:   11104
 k-point    74 :   0.4620 0.0000 0.0000  plane waves:   11110
 k-point    75 :   0.4684 0.0000 0.0000  plane waves:   11116
 k-point    76 :   0.4747 0.0000 0.0000  plane waves:   11128
 k-point    77 :   0.4810 0.0000 0.0000  plane waves:   11112
 k-point    78 :   0.4873 0.0000 0.0000  plane waves:   11112
 k-point    79 :   0.4937 0.0000 0.0000  plane waves:   11100
 k-point    80 :   0.5000 0.0000 0.0000  plane waves:   11088
 k-point    81 :   0.5000 0.0000 0.0000  plane waves:   11088
 k-point    82 :   0.4979 0.0042 0.0000  plane waves:   11106
 k-point    83 :   0.4958 0.0084 0.0000  plane waves:   11114
 k-point    84 :   0.4937 0.0127 0.0000  plane waves:   11114
 k-point    85 :   0.4916 0.0169 0.0000  plane waves:   11118
 k-point    86 :   0.4895 0.0211 0.0000  plane waves:   11134
 k-point    87 :   0.4873 0.0253 0.0000  plane waves:   11122
 k-point    88 :   0.4852 0.0295 0.0000  plane waves:   11122
 k-point    89 :   0.4831 0.0338 0.0000  plane waves:   11114
 k-point    90 :   0.4810 0.0380 0.0000  plane waves:   11118
 k-point    91 :   0.4789 0.0422 0.0000  plane waves:   11114
 k-point    92 :   0.4768 0.0464 0.0000  plane waves:   11114
 k-point    93 :   0.4747 0.0506 0.0000  plane waves:   11118
 k-point    94 :   0.4726 0.0549 0.0000  plane waves:   11116
 k-point    95 :   0.4705 0.0591 0.0000  plane waves:   11114
 k-point    96 :   0.4684 0.0633 0.0000  plane waves:   11106
 k-point    97 :   0.4662 0.0675 0.0000  plane waves:   11100
 k-point    98 :   0.4641 0.0717 0.0000  plane waves:   11106
[...]
      4     -30.5673      2.00000
      5     -30.4593      2.00000
      6     -30.4593      2.00000
      7     -30.4573      2.00000
      8     -30.4573      2.00000
      9     -16.2411      2.00000
     10     -16.0097      2.00000
     11     -15.3456      2.00000
     12     -15.0932      2.00000
     13      -7.6017      2.00000
     14      -6.8944      2.00000
     15      -5.6749      2.00000
     16      -5.6642      2.00000
     17      -5.6293      2.00000
     18      -5.5904      2.00000
     19      -4.6958      2.00000
     20      -3.6025      2.00000
     21      -3.3160      2.00000
     22      -3.2613      2.00000
     23      -3.1942      2.00004
     24      -3.1264      2.02099
     25      -1.9521      0.00000
     26      -1.9388      0.00000
     27      -1.9247      0.00000
     28      -1.9131      0.00000
     29      -1.4692      0.00000
     30      -1.1865      0.00000
     31       1.1201      0.00000
     32       1.2138      0.00000
     33       1.3888      0.00000
     34       1.4940      0.00000
     35       1.5744      0.00000
     36       1.8699      0.00000
     37       2.2768      0.00000
     38       2.4846      0.00000
     39       2.5449      0.00000
     40       2.6128      0.00000

 k-point   236 :       0.0169    0.0169    0.0000
  band No.  band energies     occupation 
      1     -52.5223      2.00000
      2     -52.5223      2.00000
      3     -30.5677      2.00000
      4     -30.5675      2.00000
      5     -30.4584      2.00000
      6     -30.4584      2.00000
      7     -30.4571      2.00000
      8     -30.4571      2.00000
      9     -16.2454      2.00000
     10     -16.0139      2.00000
     11     -15.3463      2.00000
     12     -15.0931      2.00000
     13      -7.6077      2.00000
     14      -6.8993      2.00000
     15      -5.6547      2.00000
     16      -5.6497      2.00000
     17      -5.6311      2.00000
     18      -5.5928      2.00000
     19      -4.7222      2.00000
     20      -3.6031      2.00000
     21      -3.2752      2.00000
     22      -3.2352      2.00000
     23      -3.1518      2.00327
     24      -3.1044      2.05777
     25      -1.9661      0.00000
     26      -1.9555      0.00000
     27      -1.9410      0.00000
     28      -1.9314      0.00000
     29      -1.4795      0.00000
     30      -1.2028      0.00000
     31       1.1559      0.00000
     32       1.2221      0.00000
     33       1.4259      0.00000
     34       1.4992      0.00000
     35       1.5526      0.00000
     36       1.8555      0.00000
     37       2.2256      0.00000
     38       2.4723      0.00000
     39       2.5061      0.00000
     40       2.6023      0.00000

 k-point   237 :       0.0127    0.0127    0.0000
  band No.  band energies     occupation 
      1     -52.5224      2.00000
      2     -52.5224      2.00000
      3     -30.5679      2.00000
      4     -30.5677      2.00000
      5     -30.4577      2.00000
      6     -30.4576      2.00000
      7     -30.4570      2.00000
      8     -30.4569      2.00000
      9     -16.2488      2.00000
     10     -16.0173      2.00000
     11     -15.3468      2.00000
     12     -15.0930      2.00000
     13      -7.6124      2.00000
     14      -6.9031      2.00000
     15      -5.6471      2.00000
     16      -5.6362      2.00000
     17      -5.6252      2.00000
     18      -5.5947      2.00000
     19      -4.7441      2.00000
     20      -3.6045      2.00000
     21      -3.2406      2.00000
     22      -3.2161      2.00000
     23      -3.1154      2.03771
     24      -3.0870      2.06738
     25      -1.9771      0.00000
     26      -1.9701      0.00000
     27      -1.9543      0.00000
     28      -1.9476      0.00000
     29      -1.4873      0.00000
     30      -1.2156      0.00000
     31       1.1871      0.00000
     32       1.2275      0.00000
     33       1.4584      0.00000
     34       1.5027      0.00000
     35       1.5356      0.00000
     36       1.8441      0.00000
     37       2.1828      0.00000
     38       2.4530      0.00000
     39       2.4834      0.00000
     40       2.5957      0.00000

 k-point   238 :       0.0084    0.0084    0.0000
  band No.  band energies     occupation 
      1     -52.5224      2.00000
      2     -52.5224      2.00000
      3     -30.5680      2.00000
      4     -30.5678      2.00000
      5     -30.4572      2.00000
      6     -30.4571      2.00000
      7     -30.4569      2.00000
      8     -30.4568      2.00000
      9     -16.2512      2.00000
     10     -16.0196      2.00000
     11     -15.3471      2.00000
     12     -15.0929      2.00000
     13      -7.6158      2.00000
     14      -6.9059      2.00000
     15      -5.6416      2.00000
     16      -5.6362      2.00000
     17      -5.6105      2.00000
     18      -5.5962      2.00000
     19      -4.7605      2.00000
     20      -3.6060      2.00000
     21      -3.2143      2.00000
     22      -3.2027      2.00001
     23      -3.0877      2.06837
     24      -3.0745      2.01370
     25      -1.9851      0.00000
     26      -1.9815      0.00000
     27      -1.9640      0.00000
     28      -1.9605      0.00000
     29      -1.4927      0.00000
     30      -1.2248      0.00000
     31       1.2118      0.00000
     32       1.2308      0.00000
     33       1.4839      0.00000
     34       1.5049      0.00000
     35       1.5235      0.00000
     36       1.8357      0.00000
     37       2.1504      0.00000
     38       2.4297      0.00000
     39       2.4742      0.00000
     40       2.5909      0.00000

 k-point   239 :       0.0042    0.0042    0.0000
  band No.  band energies     occupation 
      1     -52.5224      2.00000
      2     -52.5224      2.00000
      3     -30.5681      2.00000
      4     -30.5679      2.00000
      5     -30.4569      2.00000
      6     -30.4568      2.00000
      7     -30.4568      2.00000
      8     -30.4568      2.00000
      9     -16.2527      2.00000
     10     -16.0211      2.00000
     11     -15.3473      2.00000
     12     -15.0929      2.00000
     13      -7.6178      2.00000
     14      -6.9075      2.00000
     15      -5.6382      2.00000
     16      -5.6369      2.00000
     17      -5.6007      2.00000
     18      -5.5971      2.00000
     19      -4.7707      2.00000
     20      -3.6071      2.00000
     21      -3.1978      2.00002
     22      -3.1948      2.00004
     23      -3.0704      1.97650
     24      -3.0670      1.93684
     25      -1.9899      0.00000
     26      -1.9889      0.00000
     27      -1.9698      0.00000
     28      -1.9689      0.00000
     29      -1.4959      0.00000
     30      -1.2303      0.00000
     31       1.2277      0.00000
     32       1.2326      0.00000
     33       1.5004      0.00000
     34       1.5061      0.00000
     35       1.5160      0.00000
     36       1.8306      0.00000
     37       2.1301      0.00000
     38       2.4131      0.00000
     39       2.4701      0.00000
     40       2.5883      0.00000

 k-point   240 :       0.0000    0.0000    0.0000
  band No.  band energies     occupation 
      1     -52.5224      2.00000
      2     -52.5224      2.00000
      3     -30.5681      2.00000
      4     -30.5679      2.00000
      5     -30.4568      2.00000
      6     -30.4568      2.00000
      7     -30.4567      2.00000
      8     -30.4567      2.00000
      9     -16.2532      2.00000
     10     -16.0215      2.00000
     11     -15.3474      2.00000
     12     -15.0929      2.00000
     13      -7.6185      2.00000
     14      -6.9081      2.00000
     15      -5.6371      2.00000
     16      -5.6371      2.00000
     17      -5.5974      2.00000
     18      -5.5974      2.00000
     19      -4.7742      2.00000
     20      -3.6075      2.00000
     21      -3.1922      2.00005
     22      -3.1922      2.00005
     23      -3.0645      1.90203
     24      -3.0645      1.90200
     25      -1.9914      0.00000
     26      -1.9914      0.00000
     27      -1.9718      0.00000
     28      -1.9718      0.00000
     29      -1.4970      0.00000
     30      -1.2321      0.00000
     31       1.2332      0.00000
     32       1.2332      0.00000
     33       1.5064      0.00000
     34       1.5065      0.00000
     35       1.5131      0.00000
     36       1.8289      0.00000
     37       2.1232      0.00000
     38       2.4073      0.00000
     39       2.4689      0.00000
     40       2.5881      0.00000


--------------------------------------------------------------------------------------------------------


 soft charge-density along one line, spin component           1
         0         1         2         3         4         5         6         7         8         9
 total charge-density along one line
 
 pseudopotential strength for first ion, spin component:           1
 16.202 -33.128   0.000  -0.000   0.000  -0.000   0.000  -0.000
-33.128  19.967   0.000  -0.001   0.000  -0.000  -0.000  -0.000
  0.000   0.000  -8.151   0.000   0.000   8.264  -0.000  -0.000
 -0.000  -0.001   0.000  -8.150  -0.000  -0.000   8.263   0.000
  0.000   0.000   0.000  -0.000  -8.151  -0.000   0.000   8.264
 -0.000  -0.000   8.264  -0.000  -0.000   6.020   0.000   0.000
  0.000  -0.000  -0.000   8.263   0.000   0.000   6.020  -0.000
 -0.000  -0.000  -0.000   0.000   8.264   0.000  -0.000   6.020
  0.000   0.000   0.000   0.000   0.000  -0.000  -0.000  -0.000
  0.000   0.000  -0.000   0.000   0.000   0.000  -0.000  -0.000
  0.000   0.000  -0.000  -0.000  -0.000   0.000   0.000   0.000
 -0.000  -0.000   0.000   0.000  -0.000  -0.000  -0.000   0.000
 -0.000  -0.000   0.000  -0.000   0.000  -0.000   0.000  -0.000
  0.000   0.000   0.000   0.000   0.000  -0.000  -0.000  -0.000
  0.000   0.000  -0.000   0.000   0.000   0.000  -0.000  -0.000
  0.001   0.000  -0.000  -0.000  -0.000   0.000   0.000   0.000
 -0.000  -0.000   0.000   0.000  -0.000  -0.000  -0.000   0.000
 -0.000  -0.000   0.000  -0.000   0.000  -0.000   0.000  -0.000
 total augmentation occupancy for first ion, spin component:           1
  2.000   0.000   0.000   0.000   0.000   0.000   0.000   0.000   0.000   0.000   0.000   0.000   0.000   0.000   0.000   0.000
  0.000   1.000   0.000   0.000   0.000   0.000   0.000   0.000   0.000   0.000   0.000   0.000   0.000   0.000   0.000   0.000
  0.000   0.000   2.000   0.000   0.000   0.000   0.000   0.000   0.000   0.000   0.000   0.000   0.000   0.000   0.000   0.000
  0.000   0.000   0.000   2.000   0.000   0.000   0.000   0.000   0.000   0.000   0.000   0.000   0.000   0.000   0.000   0.000
  0.000   0.000   0.000   0.000   2.000   0.000   0.000   0.000   0.000   0.000   0.000   0.000   0.000   0.000   0.000   0.000
  0.000   0.000   0.000   0.000   0.000   0.000   0.000   0.000   0.000   0.000   0.000   0.000   0.000   0.000   0.000   0.000
  0.000   0.000   0.000   0.000   0.000   0.000   0.000   0.000   0.000   0.000   0.000   0.000   0.000   0.000   0.000   0.000
  0.000   0.000   0.000   0.000   0.000   0.000   0.000   0.000   0.000   0.000   0.000   0.000   0.000   0.000   0.000   0.000
  0.000   0.000   0.000   0.000   0.000   0.000   0.000   0.000   0.600   0.000   0.000   0.000   0.000   0.000   0.000   0.000
  0.000   0.000   0.000   0.000   0.000   0.000   0.000   0.000   0.000   0.600   0.000   0.000   0.000   0.000   0.000   0.000
  0.000   0.000   0.000   0.000   0.000   0.000   0.000   0.000   0.000   0.000   0.600   0.000   0.000   0.000   0.000   0.000
  0.000   0.000   0.000   0.000   0.000   0.000   0.000   0.000   0.000   0.000   0.000   0.600   0.000   0.000   0.000   0.000
  0.000   0.000   0.000   0.000   0.000   0.000   0.000   0.000   0.000   0.000   0.000   0.000   0.600   0.000   0.000   0.000
  0.000   0.000   0.000   0.000   0.000   0.000   0.000   0.000   0.000   0.000   0.000   0.000   0.000   0.000   0.000   0.000
  0.000   0.000   0.000   0.000   0.000   0.000   0.000   0.000   0.000   0.000   0.000   0.000   0.000   0.000   0.000   0.000
  0.000   0.000   0.000   0.000   0.000   0.000   0.000   0.000   0.000   0.000   0.000   0.000   0.000   0.000   0.000   0.000
  0.000   0.000   0.000   0.000   0.000   0.000   0.000   0.000   0.000   0.000   0.000   0.000   0.000   0.000   0.000   0.000
  0.000   0.000   0.000   0.000   0.000   0.000   0.000   0.000   0.000   0.000   0.000   0.000   0.000   0.000   0.000   0.000


------------------------ aborting loop because EDIFF is reached ----------------------------------------





 total charge

# of ion       s       p       d       tot
------------------------------------------
    1        2.165   6.006   1.443   9.614
    2        2.165   6.006   1.443   9.614
    3        1.457   2.429   0.026   3.913
    4        1.460   2.426   0.029   3.915
    5        1.460   2.426   0.029   3.915
    6        1.457   2.429   0.026   3.913
--------------------------------------------------
tot         10.164  21.722   2.996  34.883
 
    CHARGE:  cpu time      0.8494: real time      0.8522
    FORLOC:  cpu time      0.0056: real time      0.0056
    FORNL :  cpu time      2.4046: real time      2.4110
    STRESS:  cpu time      4.9750: real time      4.9892
    FORCOR:  cpu time      0.0722: real time      0.0724
    FORHAR:  cpu time      0.0172: real time      0.0172
    OFIELD:  cpu time      0.0003: real time      0.0003

 ---------------------------------------------------------------------------------------------

         DFTD3 V3.0 Rev 1        
 DF pbe       
 parameters
 k1-k3        =   16.0000    1.3333   -4.0000
 Edisp (eV)   -1.99008

 E6    (eV) :    -1.0640
 E8    (eV) :    -0.9261
 % E8        : 46.54
    FORVDW:  cpu time      0.0135: real time      0.0136

  FORCE on cell =-STRESS in cart. coord.  units (eV):
  Direction    XX          YY          ZZ          XY          YZ          ZX
  --------------------------------------------------------------------------------------
  Alpha Z    35.74039    35.74039    35.74039
  Ewald   41231.74321 41231.74319-43252.98869    -0.00001    -0.00001     0.00001
  Hartree 41850.98403 41850.98403-41474.33229     0.00000     0.00000    -0.00000
  E(xc)    -191.30451  -191.30451  -191.55902     0.00000    -0.00000     0.00000
  Local  -83803.90255-83803.90258 84008.19992    -0.00002     0.00000    -0.00000
  n-local   156.98631   155.29959   155.40066     5.26801     1.33424     4.04982
  augment    -8.73721    -8.73718    -8.89526     0.00003     0.00000    -0.00000
  Kinetic   725.78859   739.93245   730.23342   -18.04244    -2.89965    -6.09597
  Fock        0.00000     0.00000     0.00000     0.00000     0.00000     0.00000
  vdW        -2.07214    -2.07214    -1.47249     0.00000     0.00000    -0.00000
  -------------------------------------------------------------------------------------
  Total       1.45467     1.45467     0.32663    -0.00000     0.00000    -0.00000
  in kB       3.82306     3.82306     0.85843    -0.00000     0.00000    -0.00000
  external pressure =        2.83 kB  Pullay stress =        0.00 kB


 VOLUME and BASIS-vectors are now :
 -----------------------------------------------------------------------------
  energy-cutoff  :      400.00
  volume of cell :      609.63
      direct lattice vectors                 reciprocal lattice vectors
     3.769999981  0.000000000  0.000000000     0.265251991  0.153143308  0.000000000
    -1.884999990  3.264915756  0.000000000     0.000000000  0.306286617  0.000000000
     0.000000000  0.000000000 49.527999878     0.000000000  0.000000000  0.020190599

  length of vectors
     3.769999981  3.769999981 49.527999878     0.306286617  0.306286617  0.020190599


 FORCES acting on ions
    electron-ion (+dipol)            ewald-force                    non-local-force                 convergence-correction
 -----------------------------------------------------------------------------------------------
   0.561E-06 0.980E-06 0.160E+04   0.304E-05 0.527E-05 -.160E+04   0.389E-18 0.110E-17 0.849E-01   -.178E-05 -.357E-05 0.487E+00
   0.574E-06 0.986E-06 -.160E+04   0.304E-05 0.527E-05 0.160E+04   -.499E-18 -.410E-18 -.849E-01   -.220E-05 -.332E-05 -.487E+00
   -.217E-04 -.117E-04 0.139E+04   -.322E-05 -.163E-05 -.139E+04   -.166E-18 -.915E-17 0.454E+00   -.121E-03 0.741E-04 0.310E+00
   0.846E-06 -.244E-04 0.203E+03   0.374E-06 -.375E-05 -.204E+03   -.522E-17 0.166E-17 -.346E+00   0.129E-03 -.706E-04 0.204E+00
   -.216E-04 -.115E-04 -.203E+03   -.343E-05 -.155E-05 0.204E+03   -.319E-17 0.686E-17 0.346E+00   -.126E-03 0.767E-04 -.204E+00
   0.787E-06 -.246E-04 -.139E+04   0.198E-06 -.361E-05 0.139E+04   -.267E-16 0.106E-16 -.454E+00   0.125E-03 -.678E-04 -.310E+00
 -----------------------------------------------------------------------------------------------
   -.405E-04 -.702E-04 0.171E-10   0.249E-13 -.119E-13 0.227E-12   -.354E-16 0.106E-16 0.000E+00   0.317E-05 0.550E-05 0.140E-10
 
 
 POSITION                                       TOTAL-FORCE (eV/Angst)
 -----------------------------------------------------------------------------------
      0.00000      0.00000     21.74410         0.000000     -0.000000      0.044435
      0.00000      0.00000     27.78390         0.000000     -0.000000     -0.044435
      1.88500      1.08831     20.15518         0.000000      0.000000      0.073011
     -0.00000      2.17661     23.32961        -0.000000      0.000000     -0.178585
      1.88500      1.08831     26.19839         0.000000     -0.000000      0.178585
     -0.00000      2.17661     29.37282        -0.000000     -0.000000     -0.073011
 -----------------------------------------------------------------------------------
    total drift:                               -0.000037     -0.000065      0.000000


--------------------------------------------------------------------------------------------------------



  FREE ENERGIE OF THE ION-ELECTRON SYSTEM (eV)
  ---------------------------------------------------
  free  energy   TOTEN  =       -40.21826362 eV

  energy  without entropy=      -40.21852656  energy(sigma->0) =      -40.21835127
 


--------------------------------------------------------------------------------------------------------


    POTLOK:  cpu time      0.0734: real time      0.0741


--------------------------------------------------------------------------------------------------------


     LOOP+:  cpu time    179.6356: real time    180.1969
    4ORBIT:  cpu time      0.0000: real time      0.0000



 total charge

# of ion       s       p       d       tot
------------------------------------------
    1        2.165   6.006   1.443   9.614
    2        2.165   6.006   1.443   9.614
    3        1.457   2.429   0.026   3.913
    4        1.460   2.426   0.029   3.915
    5        1.460   2.426   0.029   3.915
    6        1.457   2.429   0.026   3.913
--------------------------------------------------
tot         10.164  21.722   2.996  34.883
 

 total amount of memory used by VASP MPI-rank0   347272. kBytes
=======================================================================

   base      :      30000. kBytes
   nonl-proj :     192143. kBytes
   fftplans  :       6582. kBytes
   grid      :      10689. kBytes
   one-center:         31. kBytes
   wavefun   :     107827. kBytes
 
  
  
 General timing and accounting informations for this job:
 ========================================================
  
                  Total CPU time used (sec):      187.555
                            User time (sec):      184.825
                          System time (sec):        2.730
                         Elapsed time (sec):      188.247
  
                   Maximum memory used (kb):      402044.
                   Average memory used (kb):          N/A
  
                          Minor page faults:       624890
                          Major page faults:            0
                 Voluntary context switches:          851
